

     ************************************************************************
     *************** Dalton - An Electronic Structure Program ***************
     ************************************************************************

    This is output from DALTON release Dalton2016.1 (2016)
         ( Web site: http://daltonprogram.org )

   ----------------------------------------------------------------------------

    NOTE:
     
    Dalton is an experimental code for the evaluation of molecular
    properties using (MC)SCF, DFT, CI, and CC wave functions.
    The authors accept no responsibility for the performance of
    the code or for the correctness of the results.
     
    The code (in whole or part) is provided under a licence and
    is not to be reproduced for further distribution without
    the written permission of the authors or their representatives.
     
    See the home page "http://daltonprogram.org" for further information.
     
    If results obtained with this code are published,
    the appropriate citations would be both of:
     
       K. Aidas, C. Angeli, K. L. Bak, V. Bakken, R. Bast,
       L. Boman, O. Christiansen, R. Cimiraglia, S. Coriani,
       P. Dahle, E. K. Dalskov, U. Ekstroem,
       T. Enevoldsen, J. J. Eriksen, P. Ettenhuber, B. Fernandez,
       L. Ferrighi, H. Fliegl, L. Frediani, K. Hald, A. Halkier,
       C. Haettig, H. Heiberg, T. Helgaker, A. C. Hennum,
       H. Hettema, E. Hjertenaes, S. Hoest, I.-M. Hoeyvik,
       M. F. Iozzi, B. Jansik, H. J. Aa. Jensen, D. Jonsson,
       P. Joergensen, J. Kauczor, S. Kirpekar,
       T. Kjaergaard, W. Klopper, S. Knecht, R. Kobayashi, H. Koch,
       J. Kongsted, A. Krapp, K. Kristensen, A. Ligabue,
       O. B. Lutnaes, J. I. Melo, K. V. Mikkelsen, R. H. Myhre,
       C. Neiss, C. B. Nielsen, P. Norman, J. Olsen,
       J. M. H. Olsen, A. Osted, M. J. Packer, F. Pawlowski,
       T. B. Pedersen, P. F. Provasi, S. Reine, Z. Rinkevicius,
       T. A. Ruden, K. Ruud, V. Rybkin, P. Salek, C. C. M. Samson,
       A. Sanchez de Meras, T. Saue, S. P. A. Sauer,
       B. Schimmelpfennig, K. Sneskov, A. H. Steindal,
       K. O. Sylvester-Hvid, P. R. Taylor, A. M. Teale,
       E. I. Tellgren, D. P. Tew, A. J. Thorvaldsen, L. Thoegersen,
       O. Vahtras, M. A. Watson, D. J. D. Wilson, M. Ziolkowski
       and H. Agren,
       "The Dalton quantum chemistry program system",
       WIREs Comput. Mol. Sci. 2014, 4:269–284 (doi: 10.1002/wcms.1172)
     
    and
     
       Dalton, a Molecular Electronic Structure Program,
       Release Dalton2016.1 (2016), see http://daltonprogram.org
   ----------------------------------------------------------------------------

    Authors in alphabetical order (major contribution(s) in parenthesis):

  Kestutis Aidas,           Vilnius University,           Lithuania   (QM/MM)
  Celestino Angeli,         University of Ferrara,        Italy       (NEVPT2)
  Keld L. Bak,              UNI-C,                        Denmark     (AOSOPPA, non-adiabatic coupling, magnetic properties)
  Vebjoern Bakken,          University of Oslo,           Norway      (DALTON; geometry optimizer, symmetry detection)
  Radovan Bast,             UiT The Arctic U. of Norway,  Norway      (DALTON installation and execution frameworks)
  Pablo Baudin,             University of Valencia,       Spain       (Cholesky excitation energies)
  Linus Boman,              NTNU,                         Norway      (Cholesky decomposition and subsystems)
  Ove Christiansen,         Aarhus University,            Denmark     (CC module)
  Renzo Cimiraglia,         University of Ferrara,        Italy       (NEVPT2)
  Sonia Coriani,            University of Trieste,        Italy       (CC module, MCD in RESPONS)
  Janusz Cukras,            University of Trieste,        Italy       (MChD in RESPONS)
  Paal Dahle,               University of Oslo,           Norway      (Parallelization)
  Erik K. Dalskov,          UNI-C,                        Denmark     (SOPPA)
  Thomas Enevoldsen,        Univ. of Southern Denmark,    Denmark     (SOPPA)
  Janus J. Eriksen,         Aarhus University,            Denmark     (Polarizable embedding model, TDA)
  Rasmus Faber,             University of Copenhagen,     Denmark     (Vib.avg. NMR with SOPPA, parallel AO-SOPPA)
  Berta Fernandez,          U. of Santiago de Compostela, Spain       (doublet spin, ESR in RESPONS)
  Lara Ferrighi,            Aarhus University,            Denmark     (PCM Cubic response)
  Heike Fliegl,             University of Oslo,           Norway      (CCSD(R12))
  Luca Frediani,            UiT The Arctic U. of Norway,  Norway      (PCM)
  Bin Gao,                  UiT The Arctic U. of Norway,  Norway      (Gen1Int library)
  Christof Haettig,         Ruhr-University Bochum,       Germany     (CC module)
  Kasper Hald,              Aarhus University,            Denmark     (CC module)
  Asger Halkier,            Aarhus University,            Denmark     (CC module)
  Frederik Beyer Hansen,    University of Copenhagen,     Denmark     (Parallel AO-SOPPA)
  Erik D. Hedegaard,        Univ. of Southern Denmark,    Denmark     (Polarizable embedding model, QM/MM)
  Hanne Heiberg,            University of Oslo,           Norway      (geometry analysis, selected one-electron integrals)
  Trygve Helgaker,          University of Oslo,           Norway      (DALTON; ABACUS, ERI, DFT modules, London, and much more)
  Alf Christian Hennum,     University of Oslo,           Norway      (Parity violation)
  Hinne Hettema,            University of Auckland,       New Zealand (quadratic response in RESPONS; SIRIUS supersymmetry)
  Eirik Hjertenaes,         NTNU,                         Norway      (Cholesky decomposition)
  Maria Francesca Iozzi,    University of Oslo,           Norway      (RPA)
  Brano Jansik              Technical Univ. of Ostrava    Czech Rep.  (DFT cubic response)
  Hans Joergen Aa. Jensen,  Univ. of Southern Denmark,    Denmark     (DALTON; SIRIUS, RESPONS, ABACUS modules, London, and much more)
  Dan Jonsson,              UiT The Arctic U. of Norway,  Norway      (cubic response in RESPONS module)
  Poul Joergensen,          Aarhus University,            Denmark     (RESPONS, ABACUS, and CC modules)
  Maciej Kaminski,          University of Warsaw,         Poland      (CPPh in RESPONS)
  Joanna Kauczor,           Linkoeping University,        Sweden      (Complex polarization propagator (CPP) module)
  Sheela Kirpekar,          Univ. of Southern Denmark,    Denmark     (Mass-velocity & Darwin integrals)
  Wim Klopper,              KIT Karlsruhe,                Germany     (R12 code in CC, SIRIUS, and ABACUS modules)
  Stefan Knecht,            ETH Zurich,                   Switzerland (Parallel CI and MCSCF)
  Rika Kobayashi,           Australian National Univ.,    Australia   (DIIS in CC, London in MCSCF)
  Henrik Koch,              NTNU,                         Norway      (CC module, Cholesky decomposition)
  Jacob Kongsted,           Univ. of Southern Denmark,    Denmark     (Polarizable embedding model, QM/MM)
  Andrea Ligabue,           University of Modena,         Italy       (CTOCD, AOSOPPA)
  Nanna H. List             Univ. of Southern Denmark,    Denmark     (Polarizable embedding model)
  Ola B. Lutnaes,           University of Oslo,           Norway      (DFT Hessian)
  Juan I. Melo,             University of Buenos Aires,   Argentina   (LRESC, Relativistic Effects on NMR Shieldings)
  Kurt V. Mikkelsen,        University of Copenhagen,     Denmark     (MC-SCRF and QM/MM)
  Rolf H. Myhre,            NTNU,                         Norway      (Cholesky, subsystems and ECC2)
  Christian Neiss,          Univ. Erlangen-Nuernberg,     Germany     (CCSD(R12))
  Christian B. Nielsen,     University of Copenhagen,     Denmark     (QM/MM)
  Patrick Norman,           Linkoeping University,        Sweden      (Cubic response and complex frequency response in RESPONS)
  Jeppe Olsen,              Aarhus University,            Denmark     (SIRIUS CI/density modules)
  Jogvan Magnus H. Olsen,   Univ. of Southern Denmark,    Denmark     (Polarizable embedding model, QM/MM)
  Anders Osted,             Copenhagen University,        Denmark     (QM/MM)
  Martin J. Packer,         University of Sheffield,      UK          (SOPPA)
  Filip Pawlowski,          Kazimierz Wielki University,  Poland      (CC3)
  Morten N. Pedersen,       Univ. of Southern Denmark,    Denmark     (Polarizable embedding model)
  Thomas B. Pedersen,       University of Oslo,           Norway      (Cholesky decomposition)
  Patricio F. Provasi,      University of Northeastern,   Argentina   (Analysis of coupling constants in localized orbitals)
  Zilvinas Rinkevicius,     KTH Stockholm,                Sweden      (open-shell DFT, ESR)
  Elias Rudberg,            KTH Stockholm,                Sweden      (DFT grid and basis info)
  Torgeir A. Ruden,         University of Oslo,           Norway      (Numerical derivatives in ABACUS)
  Kenneth Ruud,             UiT The Arctic U. of Norway,  Norway      (DALTON; ABACUS magnetic properties and much more)
  Pawel Salek,              KTH Stockholm,                Sweden      (DALTON; DFT code)
  Claire C. M. Samson       University of Karlsruhe       Germany     (Boys localization, r12 integrals in ERI)
  Alfredo Sanchez de Meras, University of Valencia,       Spain       (CC module, Cholesky decomposition)
  Trond Saue,               Paul Sabatier University,     France      (direct Fock matrix construction)
  Stephan P. A. Sauer,      University of Copenhagen,     Denmark     (SOPPA(CCSD), SOPPA prop., AOSOPPA, vibrational g-factors)
  Bernd Schimmelpfennig,    Forschungszentrum Karlsruhe,  Germany     (AMFI module)
  Kristian Sneskov,         Aarhus University,            Denmark     (Polarizable embedding model, QM/MM)
  Arnfinn H. Steindal,      UiT The Arctic U. of Norway,  Norway      (parallel QM/MM, Polarizable embedding model)
  Casper Steinmann,         Univ. of Southern Denmark,    Denmark     (QFIT, Polarizable embedding model)
  K. O. Sylvester-Hvid,     University of Copenhagen,     Denmark     (MC-SCRF)
  Peter R. Taylor,          VLSCI/Univ. of Melbourne,     Australia   (Symmetry handling ABACUS, integral transformation)
  Andrew M. Teale,          University of Nottingham,     England     (DFT-AC, DFT-D)
  David P. Tew,             University of Bristol,        England     (CCSD(R12))
  Olav Vahtras,             KTH Stockholm,                Sweden      (triplet response, spin-orbit, ESR, TDDFT, open-shell DFT)
  David J. Wilson,          La Trobe University,          Australia   (DFT Hessian and DFT magnetizabilities)
  Hans Agren,               KTH Stockholm,                Sweden      (SIRIUS module, RESPONS, MC-SCRF solvation model)
 --------------------------------------------------------------------------------

     Date and time (Linux)  : Mon Sep  9 07:46:54 2019
     Host name              : node149.cluster                         

 * Work memory size             :  2048000000 = 15.259 gigabytes.

 * Directories for basis set searches:
   1) /groups/kemi/andreasb/DHAVHF_exc/imag_polar/DHA
   2) /lustre/hpc/software/kemi/DALTON2016/build-parallel/basis


Compilation information
-----------------------

 Who compiled             | sauer
 Host                     | fend01.cluster
 System                   | Linux-2.6.32-642.6.2.el6.x86_64
 CMake generator          | Unix Makefiles
 Processor                | x86_64
 64-bit integers          | OFF
 MPI                      | ON
 Fortran compiler         | /software/kemi/openmpi-1.6.5-i4/bin/mpif90
 Fortran compiler version | ifort (IFORT) 13.0.1 20121010
 C compiler               | /software/kemi/openmpi-1.6.5-i4/bin/mpicc
 C compiler version       | icc (ICC) 13.0.1 20121010
 C++ compiler             | /software/kemi/openmpi-1.6.5-i4/bin/mpicxx
 C++ compiler version     | unknown
 BLAS                     | /users/software/kemi/intel/Compiler/composer_xe_20
                          | 13.1.117/mkl/lib/intel64/libmkl_intel_lp64.so;/use
                          | rs/software/kemi/intel/Compiler/composer_xe_2013.1
                          | .117/mkl/lib/intel64/libmkl_sequential.so;/users/s
                          | oftware/kemi/intel/Compiler/composer_xe_2013.1.117
                          | /mkl/lib/intel64/libmkl_core.so;/usr/lib64/libpthr
                          | ead.so;/usr/lib64/libm.so
 LAPACK                   | /users/software/kemi/intel/Compiler/composer_xe_20
                          | 13.1.117/mkl/lib/intel64/libmkl_lapack95_lp64.a;/u
                          | sers/software/kemi/intel/Compiler/composer_xe_2013
                          | .1.117/mkl/lib/intel64/libmkl_intel_lp64.so
 Static linking           | OFF
 Last Git revision        | a10ef0cf7cc62686ecfeaafb7364c9b014fdc003
 Configuration time       | 2017-07-05 12:54:37.340882

 * MPI run using 8 processes.


   Content of the .dal input file
 ----------------------------------

**DALTON                                          
.RUN RESPONSE                                     
.DIRECT                                           
**WAVE FUNCTIONS                                  
.DFT                                              
CAMB3LYP                                          
**RESPONSE                                        
*ABSORPTION                                       
.ALPHA                                            
.DAMPING                                          
 0.0045566                                        
.FREQ INTERVAL                                    
 0.100 0.150 0.001                                
**END OF                                          


   Content of the .mol file
 ----------------------------

ATOMBASIS                                                                      
DHA.xyz                                                                        
Hej Bendte                                                                     
Atomtypes=3 Charge=0 Nosymmetry Angstrom                                       
  7.0000     3 Bas=aug-cc-pVDZ                                                 
N   -0.106510000       -2.125560000        2.607490000                         
N   -0.514920000       -2.707570000       -1.630280000                         
N   -0.010690000        2.667080000        0.376950000                         
  6.0000    18 Bas=aug-cc-pVDZ                                                 
C    4.537270000        0.106290000       -0.415370000                         
C    4.152990000        1.064900000        0.464030000                         
C    2.812730000        1.595120000        0.594510000                         
C    3.681390000       -0.543410000       -1.391520000                         
C    1.698600000        0.875380000        0.366120000                         
C    2.381090000       -0.825730000       -1.222270000                         
C    1.735050000       -0.608790000        0.119530000                         
C    0.309860000        1.329840000        0.315480000                         
C   -0.547290000        0.288790000        0.161280000                         
C    0.226950000       -1.030940000        0.242640000                         
C    0.026930000       -1.667050000        1.563030000                         
C   -0.194690000       -1.984610000       -0.798310000                         
C   -2.002240000        0.342260000       -0.011600000                         
C   -2.838130000       -0.668120000        0.483330000                         
C   -2.586880000        1.403260000       -0.720490000                         
C   -4.212810000       -0.603690000        0.298160000                         
C   -3.962490000        1.463620000       -0.902060000                         
C   -4.782120000        0.464050000       -0.388080000                         
  1.0000    13 Bas=aug-cc-pVDZ                                                 
H    5.600400000       -0.103490000       -0.489140000                         
H    4.931620000        1.565880000        1.031810000                         
H    2.734540000        2.644780000        0.867760000                         
H    4.143710000       -0.802510000       -2.339830000                         
H    1.794230000       -1.226460000       -2.042730000                         
H    2.332020000       -1.109170000        0.888200000                         
H   -2.420800000       -1.508820000        1.026490000                         
H   -1.952840000        2.158410000       -1.172340000                         
H   -4.841620000       -1.393990000        0.691860000                         
H   -4.393760000        2.286230000       -1.461690000                         
H   -5.855430000        0.509530000       -0.532630000                         
H   -0.947790000        2.875600000        0.694850000                         
H    0.683210000        3.259180000        0.807850000                         


       *******************************************************************
       *********** Output from DALTON general input processing ***********
       *******************************************************************

 --------------------------------------------------------------------------------
   Overall default print level:    0
   Print level for DALTON.STAT:    1

    Parallel calculation using MPI
    AO-direct calculation (in sections where implemented)
    HERMIT 1- and 2-electron integral sections will be executed
    "Old" integral transformation used (limited to max 255 basis functions)
    Wave function sections will be executed (SIRIUS module)
    Dynamic molecular response properties section will be executed (RESPONSE module)
 --------------------------------------------------------------------------------


   ****************************************************************************
   *************** Output of molecule and basis set information ***************
   ****************************************************************************


    The two title cards from your ".mol" input:
    ------------------------------------------------------------------------
 1: DHA.xyz                                                                 
 2: Hej Bendte                                                              
    ------------------------------------------------------------------------

  Coordinates are entered in Angstrom and converted to atomic units.
          - Conversion factor : 1 bohr = 0.52917721 A

  Atomic type no.    1
  --------------------
  Nuclear charge:   7.00000
  Number of symmetry independent centers:    3
  Number of basis sets to read;    2
  The basis set is "aug-cc-pVDZ" from the basis set library.
  Basis set file used for this atomic type with Z =   7 :
     "/lustre/hpc/software/kemi/DALTON2016/build-parallel/basis/aug-cc-pVDZ"

  Atomic type no.    2
  --------------------
  Nuclear charge:   6.00000
  Number of symmetry independent centers:   18
  Number of basis sets to read;    2
  The basis set is "aug-cc-pVDZ" from the basis set library.
  Basis set file used for this atomic type with Z =   6 :
     "/lustre/hpc/software/kemi/DALTON2016/build-parallel/basis/aug-cc-pVDZ"

  Atomic type no.    3
  --------------------
  Nuclear charge:   1.00000
  Number of symmetry independent centers:   13
  Number of basis sets to read;    2
  The basis set is "aug-cc-pVDZ" from the basis set library.
  Basis set file used for this atomic type with Z =   1 :
     "/lustre/hpc/software/kemi/DALTON2016/build-parallel/basis/aug-cc-pVDZ"


                         SYMGRP: Point group information
                         -------------------------------

@    Point group: C1 


                                 Isotopic Masses
                                 ---------------

                           N          14.003074
                           N          14.003074
                           N          14.003074
                           C          12.000000
                           C          12.000000
                           C          12.000000
                           C          12.000000
                           C          12.000000
                           C          12.000000
                           C          12.000000
                           C          12.000000
                           C          12.000000
                           C          12.000000
                           C          12.000000
                           C          12.000000
                           C          12.000000
                           C          12.000000
                           C          12.000000
                           C          12.000000
                           C          12.000000
                           C          12.000000
                           H           1.007825
                           H           1.007825
                           H           1.007825
                           H           1.007825
                           H           1.007825
                           H           1.007825
                           H           1.007825
                           H           1.007825
                           H           1.007825
                           H           1.007825
                           H           1.007825
                           H           1.007825
                           H           1.007825

                       Total mass:   271.110947 amu
                       Natural abundance:  80.883 %

 Center-of-mass coordinates (a.u.):   -0.012515   -0.063364    0.014065


  Atoms and basis sets
  --------------------

  Number of atom types :    3
  Total number of atoms:   34

  label    atoms   charge   prim   cont     basis
  ----------------------------------------------------------------------
  N           3    7.0000    35    23      [10s5p2d|4s3p2d]                                   
  C          18    6.0000    35    23      [10s5p2d|4s3p2d]                                   
  H          13    1.0000    11     9      [5s2p|3s2p]                                        
  ----------------------------------------------------------------------
  total:     34  142.0000   878   600
  ----------------------------------------------------------------------
  Spherical harmonic basis used.

  Threshold for neglecting AO integrals:  1.00D-12

  Max    interatomic separation is   11.4723 Angstrom (   21.6795 Bohr)
  between atoms   32 and   22, "H     " and "H     ".

  Min HX interatomic separation is    1.0088 Angstrom (    1.9064 Bohr)

  Min YX interatomic separation is    1.1478 Angstrom (    2.1690 Bohr)


  Bond distances (Angstrom):
  --------------------------

                  atom 1     atom 2       distance
                  ------     ------       --------
  bond distance:  C          C            1.356447
  bond distance:  C          C            1.447223
  bond distance:  C          C            1.451726
  bond distance:  C          C            1.345910
  bond distance:  C          C            1.341317
  bond distance:  C          C            1.504957
  bond distance:  C          C            1.504944
  bond distance:  C          N            1.376496
  bond distance:  C          C            1.462087
  bond distance:  C          C            1.357302
  bond distance:  C          C            1.570902
  bond distance:  C          C            1.532238
  bond distance:  C          N            1.148449
  bond distance:  C          C            1.479214
  bond distance:  C          N            1.147777
  bond distance:  C          C            1.473378
  bond distance:  C          C            1.466160
  bond distance:  C          C            1.401619
  bond distance:  C          C            1.403585
  bond distance:  C          C            1.388591
  bond distance:  C          C            1.388853
  bond distance:  C          C            1.391082
  bond distance:  C          C            1.391082
  bond distance:  H          C            1.086138
  bond distance:  H          C            1.086103
  bond distance:  H          C            1.087458
  bond distance:  H          C            1.086354
  bond distance:  H          C            1.085423
  bond distance:  H          C            1.094352
  bond distance:  H          C            1.084419
  bond distance:  H          C            1.084632
  bond distance:  H          C            1.083963
  bond distance:  H          C            1.084374
  bond distance:  H          C            1.083955
  bond distance:  H          N            1.011285
  bond distance:  H          N            1.008838


  Bond angles (degrees):
  ----------------------

                  atom 1     atom 2     atom 3         angle
                  ------     ------     ------         -----
  bond angle:     C          N          H            115.477
  bond angle:     C          N          H            115.409
  bond angle:     H          N          H            112.463
  bond angle:     C          C          C            125.816
  bond angle:     C          C          H            117.247
  bond angle:     C          C          H            116.421
  bond angle:     C          C          C            125.431
  bond angle:     C          C          H            117.503
  bond angle:     C          C          H            116.602
  bond angle:     C          C          C            123.737
  bond angle:     C          C          H            116.288
  bond angle:     C          C          H            119.953
  bond angle:     C          C          C            125.513
  bond angle:     C          C          H            116.283
  bond angle:     C          C          H            118.197
  bond angle:     C          C          C            122.353
  bond angle:     C          C          C            128.750
  bond angle:     C          C          C            108.897
  bond angle:     C          C          C            119.888
  bond angle:     C          C          H            120.429
  bond angle:     C          C          H            119.674
  bond angle:     C          C          C            107.376
  bond angle:     C          C          C            103.234
  bond angle:     C          C          H            110.429
  bond angle:     C          C          C            116.312
  bond angle:     C          C          H            109.036
  bond angle:     C          C          H            110.229
  bond angle:     N          C          C            121.440
  bond angle:     N          C          C            127.095
  bond angle:     C          C          C            111.430
  bond angle:     C          C          C            109.602
  bond angle:     C          C          C            127.742
  bond angle:     C          C          C            122.623
  bond angle:     C          C          C            104.447
  bond angle:     C          C          C            108.381
  bond angle:     C          C          C            113.160
  bond angle:     C          C          C            110.454
  bond angle:     C          C          C            112.048
  bond angle:     C          C          C            108.277
  bond angle:     N          C          C            177.713
  bond angle:     N          C          C            178.494
  bond angle:     C          C          C            121.593
  bond angle:     C          C          C            120.031
  bond angle:     C          C          C            118.350
  bond angle:     C          C          C            120.655
  bond angle:     C          C          H            120.412
  bond angle:     C          C          H            118.931
  bond angle:     C          C          C            120.760
  bond angle:     C          C          H            119.551
  bond angle:     C          C          H            119.622
  bond angle:     C          C          C            120.435
  bond angle:     C          C          H            119.474
  bond angle:     C          C          H            120.091
  bond angle:     C          C          C            120.268
  bond angle:     C          C          H            119.628
  bond angle:     C          C          H            120.096
  bond angle:     C          C          C            119.516
  bond angle:     C          C          H            120.214
  bond angle:     C          C          H            120.265




 Principal moments of inertia (u*A**2) and principal axes
 --------------------------------------------------------

   IA     826.159217          1.000000    0.000735    0.000410
   IB    2205.540004         -0.000730    0.999939   -0.011029
   IC    2499.386892         -0.000418    0.011028    0.999939


 Rotational constants
 --------------------

               A                   B                   C

            611.7211            229.1407            202.2012 MHz
            0.020405            0.007643            0.006745 cm-1


@  Nuclear repulsion energy : 1515.087193488497 Hartree


                     .---------------------------------------.
                     | Starting in Integral Section (HERMIT) |
                     `---------------------------------------'



 ***************************************************************************************
 ****************** Output from **INTEGRALS input processing (HERMIT) ******************
 ***************************************************************************************


 - Using defaults, no **INTEGRALS input found

 Default print level:        1

 * Nuclear model: Point charge

 Calculation of one-electron Hamiltonian integrals.

 Center of mass  (bohr):     -0.012514971124     -0.063363626501      0.014065390184
 Operator center (bohr):      0.000000000000      0.000000000000      0.000000000000
 Gauge origin    (bohr):      0.000000000000      0.000000000000      0.000000000000
 Dipole origin   (bohr):      0.000000000000      0.000000000000      0.000000000000


     ************************************************************************
     ************************** Output from HERINT **************************
     ************************************************************************

  Time used in ONEDRV     is       0.78 seconds
  Time used in HUCKEL     is       0.29 seconds
  Time used in OVERLAP    is       0.13 seconds
  Time used in POPOVLP    is       0.24 seconds
  Time used in DIPLEN     is       0.14 seconds
  Time used in QUADRUP    is       0.35 seconds
  Time used in KINENE     is       0.29 seconds
  Time used in GABGEN     is       1.27 seconds
  Total CPU  time used in HERMIT:   3.49 seconds
  Total wall time used in HERMIT:   3.52 seconds


                        .----------------------------------.
                        | End of Integral Section (HERMIT) |
                        `----------------------------------'



                   .--------------------------------------------.
                   | Starting in Wave Function Section (SIRIUS) |
                   `--------------------------------------------'



@ Primary orbitals are deleted during canonical orthonormalization
@   because of detected numerical linear dependence or too large coefficients.
@ Eigenvalue threshold for num. lin. dep. =  1.00D-06

@   1 MO components are deleted in symmetry    1
 Overlap eigenvalues of the deleted orbitals:
  7.76D-07

 Max MO coeff. of last deleted MO & limit:  7.28D+02  1.00D+03

WARNING: Orbitals have been deleted because of numerical
   linear dependence although not requested in input.

 *** Output from Huckel module :

     Using EWMO model:          T
     Using EHT  model:          F
     Number of Huckel orbitals each symmetry:  118

 EWMO - Energy Weighted Maximum Overlap - is a Huckel type method,
        which normally is better than Extended Huckel Theory.
 Reference: Linderberg and Ohrn, Propagators in Quantum Chemistry (Wiley, 1973)

 Huckel EWMO eigenvalues for symmetry :  1
          -15.675007     -15.673862     -15.673502     -11.368973     -11.366013
          -11.362341     -11.357952     -11.355917     -11.355430     -11.354077
          -11.353039     -11.352242     -11.350029     -11.348577     -11.347913
          -11.347375     -11.347023     -11.345568     -11.345033     -11.344397
          -11.344038      -2.174562      -1.992622      -1.825053      -1.806737
           -1.543075      -1.525012      -1.437347      -1.411771      -1.407753
           -1.265686      -1.180161      -1.104773      -1.081135      -1.000635
           -0.967370      -0.952899      -0.932218      -0.831093      -0.808573
           -0.785668      -0.740919      -0.727127      -0.720028      -0.692993
           -0.669508      -0.651545      -0.634557      -0.615002      -0.601207
           -0.592733      -0.571478      -0.555272      -0.544573      -0.529349
           -0.519739      -0.515645      -0.501541      -0.493538      -0.473609
           -0.469858      -0.452281      -0.440935      -0.434055      -0.419023
           -0.412680      -0.402771      -0.395790      -0.382262      -0.364532
           -0.351907      -0.275888      -0.264595      -0.253882      -0.249028
           -0.245508      -0.241123      -0.232068      -0.227320      -0.206719
           -0.191213      -0.180116      -0.175689      -0.146098      -0.143829
           -0.141524      -0.137471      -0.135444      -0.132340      -0.130477
           -0.127507      -0.126655      -0.125526      -0.122374      -0.120869
           -0.120505      -0.119727      -0.119279      -0.117635      -0.114735
           -0.112727      -0.108971      -0.105457      -0.102293      -0.099574
           -0.096975      -0.096024      -0.095953      -0.093995      -0.090693
           -0.086663      -0.085439      -0.082795      -0.082460      -0.080709
           -0.076597      -0.074830      -0.073995

 **********************************************************************
 *SIRIUS* a direct, restricted step, second order MCSCF program       *
 **********************************************************************

 
     Date and time (Linux)  : Mon Sep  9 07:47:08 2019
     Host name              : node149.cluster                         

 Title lines from ".mol" input file:
     DHA.xyz                                                                 
     Hej Bendte                                                              

 Print level on unit LUPRI =   2 is   0
 Print level on unit LUW4  =   2 is   5

@    Restricted, closed shell Kohn-Sham DFT calculation.

@    Time-dependent Kohn-Sham DFT calculation (TD-DFT).
 Fock matrices are calculated directly and in parallel without use of integrals on disk.

 Initial molecular orbitals are obtained according to
 ".MOSTART EWMO  " input option

     Wave function specification
     ============================
@    Wave function type        --- KS-DFT ---
@    Number of closed shell electrons         142
@    Number of electrons in active shells       0
@    Total charge of the molecule               0

@    Spin multiplicity and 2 M_S                1         0
@    Total number of symmetries                 1 (point group: C1 )
@    Reference state symmetry                   1 (irrep name : A  )
 
     This is a DFT calculation of type: Camb3lyp
 CAM-B3LYP w/ alpha=0.190 beta=0.460 mu=0.330 VwnWeight=0.190 LypWeight=0.810

     Orbital specifications
     ======================
@    Abelian symmetry species          All |    1
@                                          |  A  
                                       --- |  ---
@    Occupied SCF orbitals              71 |   71
@    Secondary orbitals                528 |  528
@    Total number of orbitals          599 |  599
@    Number of basis functions         600 |  600

     Optimization information
     ========================
@    Number of configurations                 1
@    Number of orbital rotations          37488
     ------------------------------------------
@    Total number of variables            37489

     Maximum number of Fock   iterations      0
     Maximum number of DIIS   iterations     60
     Maximum number of QC-SCF iterations     60
     Threshold for SCF convergence     1.00D-05
 
     This is a DFT calculation of type: Camb3lyp
 CAM-B3LYP w/ alpha=0.190 beta=0.460 mu=0.330 VwnWeight=0.190 LypWeight=0.810

    INFORMATION: Switched to "new" integral transformation (from 1988 ;-) )
    because more than 255 basis functions.


 ***********************************************
 ***** DIIS acceleration of SCF iterations *****
 ***********************************************

 C1-DIIS algorithm; max error vectors =    8

 Iter      Total energy        Error norm    Delta(E)  DIIS dim.
 -----------------------------------------------------------------------------
   1  Screening settings (-IFTHRS, JTDIIS, DIFDEN, times)   -9    1    F  5.62D+02  5.62D+02
      K-S energy, electrons, error :    -87.204589454893 142.0001815921    1.82D-04
@  1    -854.301342443        7.01215D+00   -8.54D+02    1
      Virial theorem: -V/T =      2.016783
@      MULPOP N      -1.38; N      -1.38; N      -0.44; C       0.06; C       0.19; C       0.36; C       0.21; C      -0.29; C       0.26; C       1.25; 
@             C       0.73; C       0.25; C      -2.22; C       1.82; C       1.75; C       0.24; C       0.22; C       0.34; C       0.09; C       0.14; 
@             C       0.18; H      -0.20; H      -0.22; H      -0.23; H      -0.19; H      -0.26; H      -0.23; H      -0.28; H      -0.27; H      -0.23; 
   1  Level shift: doubly occupied orbital energies shifted by -2.00D-01
 -----------------------------------------------------------------------------
   2  Screening settings (-IFTHRS, JTDIIS, DIFDEN, times)   -9    2    F  5.64D+02  5.65D+02
      K-S energy, electrons, error :    -89.945127564243 142.0001280002    1.28D-04
@  2    -855.357751914        6.26710D+00   -1.06D+00    2
      Virial theorem: -V/T =      1.996624
@      MULPOP N       1.44; N       1.58; N       0.39; C       0.45; C       0.23; C       1.34; C       0.44; C       0.04; C       1.61; C       1.26; 
@             C       0.41; C       0.14; C       0.96; C      -2.04; C      -3.14; C       1.59; C       1.46; C       1.02; C      -0.29; C      -0.19; 
@             C       0.73; H      -0.70; H      -0.75; H      -0.92; H      -0.72; H      -0.95; H      -0.93; H      -1.14; H      -1.00; H      -0.80; 
   2  Level shift: doubly occupied orbital energies shifted by -2.00D-01
 -----------------------------------------------------------------------------
   3  Screening settings (-IFTHRS, JTDIIS, DIFDEN, times)   -9    3    F  5.65D+02  5.65D+02
      K-S energy, electrons, error :    -89.818132483944 142.0001269727    1.27D-04
@  3    -857.376649488        1.63598D+00   -2.02D+00    3
      Virial theorem: -V/T =      2.000757
@      MULPOP N      -0.46; N      -0.29; N       0.05; C       0.41; C       0.23; C       1.06; C       0.39; C       0.27; C       1.86; C       1.60; 
@             C       0.24; C       0.36; C       1.23; C      -0.21; C      -1.22; C       1.68; C       1.50; C       1.03; C      -0.23; C      -0.15; 
@             C       0.77; H      -0.74; H      -0.80; H      -1.01; H      -0.78; H      -1.04; H      -0.96; H      -1.20; H      -1.08; H      -0.85; 
   3  Level shift: doubly occupied orbital energies shifted by -1.00D-01
 -----------------------------------------------------------------------------
   4  Screening settings (-IFTHRS, JTDIIS, DIFDEN, times)  -10    4    F  5.68D+02  5.68D+02
      K-S energy, electrons, error :    -89.219331736918 142.0001310571    1.31D-04
@  4    -857.516564929        4.56134D-01   -1.40D-01    4
      Virial theorem: -V/T =      2.006527
@      MULPOP N      -0.21; N      -0.06; N       0.10; C       0.43; C       0.30; C       1.31; C       0.60; C       0.05; C       1.75; C       1.74; 
@             C       0.35; C       0.11; C       1.44; C      -0.54; C      -1.62; C       1.57; C       1.38; C       1.09; C      -0.02; C       0.02; 
@             C       0.89; H      -0.79; H      -0.85; H      -1.05; H      -0.84; H      -1.07; H      -0.98; H      -1.25; H      -1.12; H      -0.89; 
   4  Level shift: doubly occupied orbital energies shifted by -5.00D-02
 -----------------------------------------------------------------------------
   5  Screening settings (-IFTHRS, JTDIIS, DIFDEN, times)  -10    5    F  5.67D+02  5.67D+02
      K-S energy, electrons, error :    -89.329980082960 142.0001316192    1.32D-04
@  5    -857.530241500        1.41156D-01   -1.37D-02    5
      Virial theorem: -V/T =      2.005515
@      MULPOP N      -0.24; N      -0.08; N       0.10; C       0.44; C       0.27; C       1.39; C       0.56; C       0.05; C       1.75; C       1.78; 
@             C       0.26; C       0.12; C       1.36; C      -0.51; C      -1.60; C       1.65; C       1.43; C       1.11; C      -0.08; C      -0.04; 
@             C       0.88; H      -0.79; H      -0.85; H      -1.04; H      -0.83; H      -1.07; H      -0.98; H      -1.24; H      -1.12; H      -0.89; 
   5  Level shift: doubly occupied orbital energies shifted by -2.50D-02
 -----------------------------------------------------------------------------
   6  Screening settings (-IFTHRS, JTDIIS, DIFDEN, times)  -11    6    F  5.69D+02  5.69D+02
      K-S energy, electrons, error :    -89.340796781081 142.0001311465    1.31D-04
@  6    -857.531522185        6.69606D-02   -1.28D-03    6
      Virial theorem: -V/T =      2.005415
@      MULPOP N      -0.22; N      -0.07; N       0.08; C       0.42; C       0.27; C       1.33; C       0.56; C       0.10; C       1.76; C       1.80; 
@             C       0.29; C       0.10; C       1.36; C      -0.54; C      -1.62; C       1.67; C       1.41; C       1.11; C      -0.07; C      -0.04; 
@             C       0.88; H      -0.78; H      -0.85; H      -1.04; H      -0.83; H      -1.07; H      -0.97; H      -1.24; H      -1.12; H      -0.89; 
   6  Level shift: doubly occupied orbital energies shifted by -1.25D-02
 -----------------------------------------------------------------------------
   7  Screening settings (-IFTHRS, JTDIIS, DIFDEN, times)  -11    7    F  5.69D+02  5.69D+02
      K-S energy, electrons, error :    -89.338131490312 142.0001314546    1.31D-04
@  7    -857.531833274        2.20360D-02   -3.11D-04    7
      Virial theorem: -V/T =      2.005441
@      MULPOP N      -0.23; N      -0.07; N       0.08; C       0.42; C       0.28; C       1.37; C       0.58; C       0.07; C       1.74; C       1.79; 
@             C       0.28; C       0.12; C       1.35; C      -0.53; C      -1.61; C       1.67; C       1.41; C       1.10; C      -0.07; C      -0.03; 
@             C       0.88; H      -0.79; H      -0.85; H      -1.04; H      -0.83; H      -1.07; H      -0.97; H      -1.24; H      -1.12; H      -0.89; 
 -----------------------------------------------------------------------------
   8  Screening settings (-IFTHRS, JTDIIS, DIFDEN, times)  -12    8    F  5.71D+02  5.71D+02
      K-S energy, electrons, error :    -89.337751332236 142.0001315060    1.32D-04
@  8    -857.531875411        6.68429D-03   -4.21D-05    8
      Virial theorem: -V/T =      2.005448
@      MULPOP N      -0.23; N      -0.07; N       0.08; C       0.42; C       0.27; C       1.36; C       0.57; C       0.08; C       1.74; C       1.79; 
@             C       0.28; C       0.12; C       1.34; C      -0.52; C      -1.60; C       1.67; C       1.41; C       1.10; C      -0.07; C      -0.03; 
@             C       0.88; H      -0.78; H      -0.85; H      -1.04; H      -0.83; H      -1.07; H      -0.97; H      -1.24; H      -1.12; H      -0.89; 
 -----------------------------------------------------------------------------
   9  Screening settings (-IFTHRS, JTDIIS, DIFDEN, times)  -12    9    F  5.70D+02  5.70D+02
      K-S energy, electrons, error :    -89.338255249981 142.0001315114    1.32D-04
@  9    -857.531880051        2.78334D-03   -4.64D-06    8
      Virial theorem: -V/T =      2.005443
@      MULPOP N      -0.23; N      -0.07; N       0.08; C       0.42; C       0.27; C       1.36; C       0.58; C       0.08; C       1.74; C       1.80; 
@             C       0.28; C       0.12; C       1.34; C      -0.52; C      -1.60; C       1.67; C       1.41; C       1.10; C      -0.07; C      -0.04; 
@             C       0.88; H      -0.78; H      -0.85; H      -1.04; H      -0.83; H      -1.07; H      -0.97; H      -1.24; H      -1.12; H      -0.89; 
 -----------------------------------------------------------------------------
  10  Screening settings (-IFTHRS, JTDIIS, DIFDEN, times)  -13   10    F  5.72D+02  5.72D+02
      K-S energy, electrons, error :    -89.338217267233 142.0001315150    1.32D-04
@ 10    -857.531880902        1.59618D-03   -8.51D-07    8
      Virial theorem: -V/T =      2.005443
@      MULPOP N      -0.23; N      -0.07; N       0.08; C       0.42; C       0.27; C       1.36; C       0.58; C       0.08; C       1.74; C       1.79; 
@             C       0.28; C       0.12; C       1.34; C      -0.52; C      -1.60; C       1.67; C       1.41; C       1.10; C      -0.07; C      -0.03; 
@             C       0.88; H      -0.78; H      -0.85; H      -1.04; H      -0.83; H      -1.07; H      -0.97; H      -1.24; H      -1.12; H      -0.89; 
 -----------------------------------------------------------------------------
  11  Screening settings (-IFTHRS, JTDIIS, DIFDEN, times)  -13   11    F  5.71D+02  5.71D+02
      K-S energy, electrons, error :    -89.338249182460 142.0001315127    1.32D-04
@ 11    -857.531881101        6.99111D-04   -1.99D-07    8
      Virial theorem: -V/T =      2.005443
@      MULPOP N      -0.23; N      -0.07; N       0.08; C       0.42; C       0.27; C       1.36; C       0.58; C       0.08; C       1.74; C       1.79; 
@             C       0.28; C       0.12; C       1.34; C      -0.52; C      -1.60; C       1.67; C       1.41; C       1.10; C      -0.07; C      -0.03; 
@             C       0.88; H      -0.78; H      -0.85; H      -1.04; H      -0.83; H      -1.07; H      -0.97; H      -1.24; H      -1.12; H      -0.89; 
 -----------------------------------------------------------------------------
  12  Screening settings (-IFTHRS, JTDIIS, DIFDEN, times)  -13   12    F  5.71D+02  5.72D+02
      K-S energy, electrons, error :    -89.338250966529 142.0001315108    1.32D-04
@ 12    -857.531881164        2.47002D-04   -6.28D-08    8
      Virial theorem: -V/T =      2.005443
@      MULPOP N      -0.23; N      -0.07; N       0.08; C       0.42; C       0.27; C       1.36; C       0.58; C       0.08; C       1.74; C       1.79; 
@             C       0.28; C       0.12; C       1.34; C      -0.52; C      -1.60; C       1.67; C       1.41; C       1.10; C      -0.07; C      -0.03; 
@             C       0.88; H      -0.78; H      -0.85; H      -1.04; H      -0.83; H      -1.07; H      -0.97; H      -1.24; H      -1.12; H      -0.89; 
 -----------------------------------------------------------------------------
  13  Screening settings (-IFTHRS, JTDIIS, DIFDEN, times)  -13   13    F  5.72D+02  5.72D+02
      K-S energy, electrons, error :    -89.338209608945 142.0001315092    1.32D-04
@ 13    -857.531881171        9.08879D-05   -7.17D-09    8
      Virial theorem: -V/T =      2.005444
@      MULPOP N      -0.23; N      -0.07; N       0.08; C       0.42; C       0.27; C       1.36; C       0.58; C       0.08; C       1.74; C       1.79; 
@             C       0.28; C       0.12; C       1.34; C      -0.52; C      -1.60; C       1.67; C       1.41; C       1.10; C      -0.07; C      -0.03; 
@             C       0.88; H      -0.78; H      -0.85; H      -1.04; H      -0.83; H      -1.07; H      -0.97; H      -1.24; H      -1.12; H      -0.89; 
 -----------------------------------------------------------------------------
  14  Screening settings (-IFTHRS, JTDIIS, DIFDEN, times)  -13   14    F  5.72D+02  5.72D+02
      K-S energy, electrons, error :    -89.338237017721 142.0001315090    1.32D-04
@ 14    -857.531881172        3.49466D-05   -7.54D-10    8
      Virial theorem: -V/T =      2.005443
@      MULPOP N      -0.23; N      -0.07; N       0.08; C       0.42; C       0.27; C       1.36; C       0.58; C       0.08; C       1.74; C       1.79; 
@             C       0.28; C       0.12; C       1.34; C      -0.52; C      -1.60; C       1.67; C       1.41; C       1.10; C      -0.07; C      -0.03; 
@             C       0.88; H      -0.78; H      -0.85; H      -1.04; H      -0.83; H      -1.07; H      -0.97; H      -1.24; H      -1.12; H      -0.89; 
 -----------------------------------------------------------------------------
  15  Screening settings (-IFTHRS, JTDIIS, DIFDEN, times)  -13   15    F  5.71D+02  5.72D+02
      K-S energy, electrons, error :    -89.338234447513 142.0001315085    1.32D-04
@ 15    -857.531881172        1.58077D-05   -1.25D-10    8
      Virial theorem: -V/T =      2.005443
@      MULPOP N      -0.23; N      -0.07; N       0.08; C       0.42; C       0.27; C       1.36; C       0.58; C       0.08; C       1.74; C       1.79; 
@             C       0.28; C       0.12; C       1.34; C      -0.52; C      -1.60; C       1.67; C       1.41; C       1.10; C      -0.07; C      -0.03; 
@             C       0.88; H      -0.78; H      -0.85; H      -1.04; H      -0.83; H      -1.07; H      -0.97; H      -1.24; H      -1.12; H      -0.89; 
 -----------------------------------------------------------------------------
  16  Screening settings (-IFTHRS, JTDIIS, DIFDEN, times)  -13   16    F  5.72D+02  5.72D+02
      K-S energy, electrons, error :    -89.338232783197 142.0001315085    1.32D-04
@ 16    -857.531881172        6.89777D-06   -1.41D-11    8

@ *** DIIS converged in  16 iterations !
@     Converged SCF energy, gradient:   -857.531881172285    6.90D-06
    - total time used in SIRFCK :              0.00 seconds


 *** SCF orbital energy analysis ***

 Only the 20 lowest virtual orbital energies printed in each symmetry.

 Number of electrons :  142
 Orbital occupations :   71

 Sym       Kohn-Sham orbital energies

1 A     -14.44271073   -14.42703249   -14.42651421   -10.37294374   -10.33403645
        -10.31967216   -10.31934618   -10.31122863   -10.30239791   -10.29238153
        -10.28990248   -10.28757271   -10.28734949   -10.28722653   -10.28511317
        -10.27975836   -10.27442578   -10.27386681   -10.27284763   -10.27235856
        -10.27186652    -1.04931279    -1.02568064    -1.00961329    -0.98241810
         -0.96089979    -0.93467395    -0.88628559    -0.87474013    -0.85627470
         -0.84238810    -0.82229643    -0.76603784    -0.74189360    -0.70446270
         -0.69636264    -0.67833504    -0.66429959    -0.64586588    -0.62679925
         -0.61254040    -0.59764102    -0.59058487    -0.56179999    -0.55472408
         -0.54749166    -0.53081800    -0.52851252    -0.52218783    -0.50228964
         -0.49488445    -0.48158217    -0.47588324    -0.46920148    -0.46351321
         -0.45714243    -0.45090068    -0.44810332    -0.43480506    -0.43095000
         -0.42646897    -0.42354554    -0.41913818    -0.41324659    -0.39940320
         -0.39524276    -0.34797598    -0.34066104    -0.32279600    -0.31362701
         -0.26613098    -0.04274894    -0.00197906     0.00353761     0.00987174
          0.01408972     0.01776044     0.02336616     0.02724644     0.03011722
          0.03473453     0.03687502     0.04026379     0.04287863     0.04658782
          0.04841818     0.05388721     0.05667775     0.06036971     0.06274540
          0.06874859

    E(LUMO) :    -0.04274894 au (symmetry 1)
  - E(HOMO) :    -0.26613098 au (symmetry 1)
  ------------------------------------------
    gap     :     0.22338205 au

 --- Writing SIRIFC interface file

 CPU and wall time for SCF :    9315.122    9320.397


                       .-----------------------------------.
                       | --- Final results from SIRIUS --- |
                       `-----------------------------------'


@    Spin multiplicity:           1
@    Spatial symmetry:            1 ( irrep  A   in C1  )
@    Total charge of molecule:    0

@    Final DFT energy:           -857.531881172285                 
@    Nuclear repulsion:          1515.087193488497
@    Electronic energy:         -2372.619074660783

@    Final gradient norm:           0.000006897774

 
     Date and time (Linux)  : Mon Sep  9 10:22:29 2019
     Host name              : node149.cluster                         

File label for MO orbitals:   9Sep19   FOCKDIIS

 (Only coefficients > 0.0100 are printed.)

 Molecular orbitals for symmetry species 1  (A  )
 ------------------------------------------------

    Orbital        62       63       64       65       66       67       68
   2 N   :1s    -0.0257   0.0015   0.0415   0.0180  -0.0002   0.0012   0.0004
   3 N   :1s     0.0060  -0.0273   0.0233  -0.0173   0.0049  -0.0074  -0.0019
   4 N   :1s    -0.0276  -0.0938   0.0861  -0.0397  -0.0332  -0.0024   0.0465
   5 N   :2px    0.0325   0.0820  -0.1378  -0.0199  -0.4026  -0.0855   0.0291
   6 N   :2py   -0.3311   0.0366  -0.4121   0.0602   0.1061   0.0722  -0.0060
   7 N   :2pz   -0.2084   0.0156  -0.0589   0.0906  -0.0323   0.0641  -0.0146
   8 N   :2px    0.0001  -0.0168   0.0164   0.0080   0.0508   0.0052  -0.0022
   9 N   :2py    0.0409  -0.0074   0.0511  -0.0076  -0.0196  -0.0005   0.0030
  10 N   :2pz    0.0320  -0.0011  -0.0078  -0.0064   0.0090  -0.0047  -0.0000
  11 N   :2px    0.0005  -0.0207  -0.0004   0.0015  -0.0073  -0.0054   0.0101
  12 N   :2py   -0.0223  -0.0054  -0.0037   0.0093  -0.0071   0.0126   0.0045
  13 N   :2pz    0.0016   0.0237  -0.0220   0.0192   0.0067   0.0034  -0.0186
  15 N   :3d1-   0.0105  -0.0010   0.0153  -0.0008  -0.0043  -0.0019  -0.0001
  16 N   :3d0    0.0127  -0.0012   0.0091  -0.0042   0.0015  -0.0031   0.0006
  17 N   :3d1+  -0.0029  -0.0031   0.0052   0.0007   0.0153   0.0034  -0.0010
  25 N   :1s    -0.0559   0.0223  -0.0322   0.0016   0.0028  -0.0039  -0.0050
  26 N   :1s    -0.0087   0.0264  -0.0337  -0.0032  -0.0008  -0.0023   0.0026
  27 N   :1s    -0.0976   0.0762  -0.0686   0.0255  -0.0169  -0.0126  -0.0224
  28 N   :2px   -0.2928  -0.0089   0.2041  -0.1327  -0.3001   0.0540  -0.0393
  29 N   :2py    0.0723  -0.0662   0.3891   0.1113   0.1147  -0.0248   0.0001
  30 N   :2pz    0.2500  -0.0367  -0.2700  -0.0450   0.0250   0.0254   0.0004
  31 N   :2px    0.0329   0.0025  -0.0301   0.0186   0.0411  -0.0009   0.0058
  32 N   :2py   -0.0164   0.0163  -0.0533  -0.0092  -0.0195  -0.0039  -0.0020
  33 N   :2pz   -0.0429   0.0149   0.0217   0.0084  -0.0116  -0.0031  -0.0043
  35 N   :2py   -0.0154   0.0031  -0.0042   0.0125  -0.0074  -0.0073  -0.0039
  36 N   :2pz   -0.0269   0.0086  -0.0137   0.0116  -0.0080   0.0054  -0.0099
  37 N   :3d2-  -0.0082  -0.0011   0.0106  -0.0023  -0.0063   0.0011  -0.0010
  39 N   :3d0    0.0099   0.0002  -0.0190  -0.0023   0.0010   0.0011   0.0001
  48 N   :1s     0.0141   0.0015  -0.0207   0.0213  -0.0192  -0.0861  -0.0331
  49 N   :1s     0.0038  -0.0211  -0.0252  -0.0258   0.0206  -0.0083  -0.0126
  50 N   :1s     0.0133   0.0338  -0.0330   0.0774   0.0173  -0.1137  -0.0806
  51 N   :2px    0.0268   0.0687   0.0006  -0.0039   0.0069  -0.0172   0.0290
  52 N   :2py   -0.0450   0.0107  -0.0154   0.0467   0.0659  -0.1219  -0.0792
  53 N   :2pz    0.0020  -0.0608   0.0733  -0.1291  -0.0104   0.4314   0.1796
  54 N   :2px    0.0044  -0.0218   0.0009  -0.0157  -0.0130  -0.0024  -0.0054
  55 N   :2py    0.0237   0.0015  -0.0026   0.0031  -0.0147  -0.0133   0.0101
  57 N   :2px   -0.0094  -0.0314  -0.0022   0.0069   0.0157  -0.0116  -0.0020
  58 N   :2py   -0.0183  -0.0142   0.0042   0.0100  -0.0132  -0.0150  -0.0059
  59 N   :2pz   -0.0069  -0.0085   0.0069  -0.0149   0.0001   0.0648   0.0286
  67 N   :3d0    0.0040  -0.0064  -0.0008  -0.0084   0.0003   0.0139   0.0071
  71 C   :1s     0.0210   0.0080  -0.0217   0.0279   0.0018   0.0015  -0.0048
  72 C   :1s     0.0524   0.0455  -0.0274   0.0262  -0.0671   0.0120   0.0766
  73 C   :1s     0.2244   0.1491  -0.1246   0.0938  -0.0790   0.0355   0.0321
  74 C   :2px   -0.1339  -0.0770   0.0743  -0.1129   0.0404  -0.0272  -0.0872
  75 C   :2py   -0.0796   0.0172   0.0367  -0.1535   0.0043  -0.0678  -0.1551
  76 C   :2pz   -0.0142  -0.0214   0.0339   0.3428  -0.1243   0.0466   0.0866
  77 C   :2px    0.0354   0.0119  -0.0306   0.0759   0.0159   0.0071   0.0536
  78 C   :2py   -0.0165   0.0012  -0.0290   0.0537   0.0362   0.0267   0.0390
  79 C   :2pz   -0.0385  -0.0025  -0.0273   0.0165   0.0456   0.0221   0.0241
  80 C   :2px   -0.0354  -0.0232   0.0285  -0.0408   0.0193   0.0026   0.0115
  81 C   :2py    0.0264  -0.0046   0.0261  -0.0943  -0.0039  -0.0158   0.0028
  82 C   :2pz    0.0312  -0.0037   0.0388  -0.0995  -0.0133  -0.0198   0.0095
  85 C   :3d0    0.0053   0.0039  -0.0020   0.0108  -0.0058   0.0008  -0.0068
  86 C   :3d1+   0.0033   0.0035  -0.0022  -0.0108   0.0040  -0.0004  -0.0022
  87 C   :3d2+  -0.0020  -0.0023   0.0010  -0.0023   0.0026  -0.0008  -0.0129
  88 C   :3d2-  -0.0197  -0.0140   0.0210  -0.0036  -0.0112  -0.0097  -0.0146
  89 C   :3d1-  -0.0126  -0.0181   0.0067  -0.0069   0.0152  -0.0005   0.0092
  90 C   :3d0   -0.0222  -0.0286   0.0148  -0.0005   0.0178  -0.0037  -0.0056
  91 C   :3d1+  -0.0102  -0.0061   0.0192  -0.0104  -0.0175  -0.0125  -0.0179
  92 C   :3d2+   0.0141   0.0181  -0.0033   0.0101  -0.0210   0.0011  -0.0120
  94 C   :1s     0.0040  -0.0194   0.0032   0.0456  -0.0076  -0.0058   0.0077
  95 C   :1s    -0.0634  -0.0612   0.0641  -0.0219  -0.0415  -0.0263  -0.1185
  96 C   :1s    -0.2661  -0.0834   0.0808   0.1197   0.0258  -0.0452   0.0205
  97 C   :2px    0.0765   0.1085  -0.0342  -0.0637  -0.0135   0.0219   0.0836
  98 C   :2py   -0.0467  -0.0211   0.0033  -0.3610   0.1345  -0.0301   0.0632
  99 C   :2pz    0.1009   0.0137  -0.0385   0.1512  -0.0173   0.0378  -0.0631
 100 C   :2px    0.0077   0.0004   0.0067   0.0257  -0.0319  -0.0237  -0.0479
 101 C   :2py   -0.0226  -0.0078  -0.0054   0.0908  -0.0011   0.0192  -0.0117
 102 C   :2pz   -0.0308   0.0057  -0.0045   0.0366  -0.0056   0.0117   0.0015
 103 C   :2px    0.0170   0.0145  -0.0416   0.0783  -0.0078   0.0128  -0.0203
 104 C   :2py    0.0397   0.0078   0.0168  -0.0751  -0.0168  -0.0113   0.0213
 105 C   :2pz    0.0371   0.0044   0.0018  -0.0346  -0.0132   0.0002   0.0138
 109 C   :3d1+   0.0029   0.0015  -0.0014  -0.0067   0.0026   0.0038   0.0177
 110 C   :3d2+  -0.0019  -0.0022   0.0013  -0.0112   0.0055  -0.0022  -0.0061
 111 C   :3d2-  -0.0399  -0.0215   0.0169   0.0215  -0.0075  -0.0100   0.0010
 112 C   :3d1-   0.0051  -0.0086   0.0041  -0.0202   0.0101  -0.0059  -0.0155
 113 C   :3d0   -0.0092  -0.0202   0.0112  -0.0145   0.0069  -0.0078  -0.0128
 114 C   :3d1+  -0.0291  -0.0159   0.0078   0.0186  -0.0047  -0.0069   0.0129
 115 C   :3d2+  -0.0168  -0.0002  -0.0013   0.0240  -0.0061   0.0069   0.0143
 117 C   :1s     0.0094  -0.0116   0.0081   0.0039   0.0176   0.0001  -0.0212
 118 C   :1s    -0.0385  -0.0813   0.1109  -0.1247   0.0330  -0.0172  -0.2368
 119 C   :1s     0.1365   0.0138  -0.0109  -0.1376   0.0167  -0.0210  -0.3834
 120 C   :2px   -0.1313  -0.0939   0.0396   0.0116  -0.0074  -0.0206  -0.0189
 121 C   :2py   -0.0644   0.0393   0.0038   0.0392  -0.0820   0.0275   0.1356
 122 C   :2pz    0.0837   0.0511  -0.0359   0.2653  -0.0967  -0.0637  -0.3997
 123 C   :2px    0.0594   0.0896  -0.0489   0.0225  -0.0245  -0.0368   0.0466
 124 C   :2py    0.0308  -0.0218  -0.0315  -0.0271   0.0530  -0.0022   0.0683
 125 C   :2pz   -0.0006  -0.0311  -0.0056  -0.0519   0.0504  -0.0029   0.0494
 126 C   :2px   -0.0331  -0.0060  -0.0397   0.0852   0.0429   0.0349  -0.0003
 127 C   :2py   -0.0271   0.0182  -0.0071  -0.0050  -0.0088   0.0156   0.0628
 128 C   :2pz   -0.0128   0.0063  -0.0004   0.0301  -0.0004  -0.0075  -0.0169
 129 C   :3d2-   0.0024   0.0035  -0.0011  -0.0100   0.0026  -0.0004   0.0036
 133 C   :3d2+   0.0009  -0.0059   0.0003  -0.0145   0.0086  -0.0027  -0.0036
 134 C   :3d2-  -0.0485  -0.0296   0.0259  -0.0143  -0.0052   0.0020  -0.0271
 136 C   :3d0    0.0016   0.0104  -0.0016  -0.0011  -0.0065   0.0011  -0.0095
 137 C   :3d1+  -0.0231  -0.0015   0.0049   0.0166  -0.0169   0.0010   0.0092
 138 C   :3d2+  -0.0101   0.0033   0.0046   0.0488  -0.0315   0.0086   0.0487
 140 C   :1s     0.0185   0.0048   0.0016   0.0130   0.0261   0.0054   0.0041
 141 C   :1s     0.1012   0.0042  -0.0175  -0.1655  -0.0403   0.0039   0.0758
 142 C   :1s     0.0478  -0.1042  -0.0671  -0.2280   0.1835   0.1312   0.3291
 143 C   :2px    0.0780   0.0580  -0.0465   0.1158  -0.1079   0.0201   0.1276
 144 C   :2py    0.0318   0.0693  -0.0433  -0.2669   0.0742  -0.0467  -0.3575
 145 C   :2pz    0.1013   0.0047  -0.0591  -0.0260   0.0792   0.0300   0.1854
 146 C   :2px   -0.0692  -0.0110  -0.0421   0.0724   0.1400   0.0329  -0.0077
 147 C   :2py   -0.0313  -0.0275  -0.0042   0.0862   0.0413   0.0111   0.0347
 148 C   :2pz   -0.0191  -0.0229   0.0069   0.0889  -0.0108  -0.0062   0.0146
 149 C   :2px    0.0161  -0.0053   0.0593  -0.1042  -0.0356  -0.0625  -0.0529
 150 C   :2py   -0.0075  -0.0093   0.0357  -0.0520  -0.0017  -0.0160  -0.0286
 151 C   :2pz   -0.0103  -0.0260   0.0578  -0.0588  -0.0126   0.0010   0.0333
 154 C   :3d0    0.0026   0.0014   0.0002   0.0162  -0.0080   0.0022   0.0051
 157 C   :3d2-  -0.0040   0.0144  -0.0008   0.0125  -0.0230   0.0046   0.0002
 158 C   :3d1-  -0.0185  -0.0108   0.0023   0.0129   0.0204   0.0039  -0.0015
 159 C   :3d0   -0.0045  -0.0195  -0.0087   0.0005   0.0527   0.0033   0.0110
 160 C   :3d1+  -0.0339   0.0103   0.0096   0.0498  -0.0173   0.0115  -0.0221
 161 C   :3d2+   0.0150   0.0184  -0.0015  -0.0053  -0.0316  -0.0039  -0.0090
 163 C   :1s    -0.0262  -0.0208  -0.0074   0.0045   0.0179  -0.0072   0.0699
 164 C   :1s    -0.0290   0.0929  -0.0565   0.2356   0.0521   0.0090   0.0704
 165 C   :1s    -0.1550  -0.1800  -0.0687  -0.1030   0.3456  -0.1145   0.3679
 166 C   :2px    0.1080   0.1078  -0.0172  -0.0802   0.0085   0.0525   0.0899
 167 C   :2py    0.0585  -0.0804   0.0006  -0.1183   0.1090  -0.0140  -0.0733
 168 C   :2pz    0.0988   0.0406  -0.0308   0.0851  -0.0047  -0.1280  -0.3604
 169 C   :2px   -0.0162   0.0741  -0.0170  -0.0970  -0.1129  -0.0684   0.0216
 170 C   :2py   -0.0098   0.0233  -0.0181   0.1436   0.0576  -0.0391   0.0031
 171 C   :2pz    0.0043   0.0111  -0.0013   0.0172   0.0016   0.0078   0.0151
 172 C   :2px    0.0704   0.1314  -0.0308   0.1749  -0.2342   0.0911   0.1902
 173 C   :2py   -0.0158  -0.2632  -0.0363   0.0420   0.2988  -0.1198   0.0294
 174 C   :2pz   -0.0061  -0.0189  -0.0150  -0.0144   0.0219   0.0169   0.0032
 176 C   :3d1-   0.0030   0.0023   0.0007   0.0104  -0.0053  -0.0012  -0.0091
 178 C   :3d1+   0.0035   0.0001  -0.0022   0.0091   0.0002   0.0021  -0.0103
 180 C   :3d2-   0.0375  -0.0068  -0.0602  -0.0047   0.0224   0.0080   0.1112
 181 C   :3d1-  -0.0284   0.0227  -0.0021  -0.0014  -0.0247  -0.0001  -0.0140
 183 C   :3d1+   0.0025   0.0183  -0.0088   0.0364  -0.0325   0.0012   0.0436
 184 C   :3d2+   0.0463  -0.0587  -0.0374   0.0693   0.0467   0.0345   0.1225
 186 C   :1s     0.0269  -0.0060  -0.0256  -0.0137   0.0109  -0.0329  -0.0775
 187 C   :1s     0.0182  -0.0633   0.0486   0.0415   0.0132  -0.0367  -0.1453
 188 C   :1s    -0.0853   0.0220   0.0456   0.0533  -0.0527  -0.3128  -0.3396
 189 C   :2px   -0.0842  -0.0736   0.0662  -0.0402   0.0885   0.0104   0.0760
 190 C   :2py   -0.0578   0.0240   0.0346  -0.1230   0.0203  -0.0282  -0.3418
 191 C   :2pz   -0.0578  -0.0253   0.0815   0.1466  -0.1155  -0.0495  -0.0627
 192 C   :2px   -0.0570   0.0307  -0.1037   0.1075   0.1446   0.0529   0.0285
 193 C   :2py    0.0253   0.0106  -0.0351  -0.0214  -0.0017   0.0163   0.0356
 194 C   :2pz    0.1049   0.0142  -0.0013  -0.1338  -0.1030   0.0021  -0.0271
 195 C   :2px   -0.0662   0.0144   0.1302  -0.0053  -0.0455  -0.0579  -0.1394
 196 C   :2py   -0.0257   0.0086   0.0096   0.0145  -0.0154  -0.0325  -0.0617
 197 C   :2pz    0.0033   0.0295  -0.0886   0.0814   0.0283  -0.0203  -0.0219
 198 C   :3d2-   0.0011   0.0010  -0.0015  -0.0121   0.0062  -0.0019  -0.0132
 201 C   :3d1+   0.0026   0.0022  -0.0049  -0.0073   0.0021   0.0024   0.0106
 203 C   :3d2-  -0.0193   0.0093   0.0030   0.0282  -0.0031   0.0044  -0.0080
 204 C   :3d1-   0.0049   0.0063   0.0008  -0.0203  -0.0117   0.0011   0.0008
 205 C   :3d0    0.0232  -0.0049   0.0064  -0.0633  -0.0255  -0.0043   0.0016
 206 C   :3d1+  -0.0390   0.0204   0.0002   0.0221   0.0069   0.0148  -0.0176
 207 C   :3d2+  -0.0153  -0.0030   0.0052   0.0427   0.0163  -0.0029  -0.0164
 209 C   :1s     0.0087  -0.0052   0.0106   0.0189   0.0432  -0.0046  -0.0008
 210 C   :1s     0.1587  -0.0649  -0.0361   0.1395   0.1241  -0.0317   0.0481
 211 C   :1s    -0.1311   0.0501   0.4879   0.3788  -0.0243   0.1262  -0.2157
 212 C   :2px   -0.1546   0.0681   0.0466  -0.1016  -0.2403  -0.0126  -0.0422
 213 C   :2py   -0.0592   0.0804   0.0006   0.1140  -0.1490   0.0275   0.1302
 214 C   :2pz   -0.0155   0.0063  -0.0297  -0.2017   0.0981   0.0449   0.1172
 215 C   :2px   -0.1286  -0.0073  -0.0636   0.2842   0.2407   0.0725   0.1245
 216 C   :2py    0.0334  -0.0951  -0.0264   0.0129   0.1121   0.0003   0.0355
 217 C   :2pz    0.0934  -0.0205   0.0849   0.0128  -0.1422  -0.0733  -0.0792
 218 C   :2px    0.0117  -0.1290  -0.1032  -0.2329   0.0925  -0.0071   0.0595
 219 C   :2py    0.0452  -0.1221  -0.0487  -0.1049   0.1931   0.0098  -0.0077
 220 C   :2pz   -0.0668   0.0037   0.0061   0.0837   0.0746  -0.0821  -0.0386
 223 C   :3d0   -0.0002   0.0025  -0.0013  -0.0005  -0.0041  -0.0026  -0.0123
 226 C   :3d2-   0.0215   0.0196  -0.0165   0.0022  -0.0221   0.0025   0.0302
 227 C   :3d1-  -0.0116   0.0081  -0.0357  -0.0389   0.0216   0.0123   0.0270
 228 C   :3d0   -0.0599   0.0235  -0.0259   0.0444   0.0566   0.0260   0.0393
 229 C   :3d1+   0.0249   0.0004  -0.0325  -0.0103   0.0178   0.0229  -0.0249
 230 C   :3d2+   0.0048   0.0140   0.0178  -0.0223  -0.0754  -0.0057  -0.0061
 232 C   :1s    -0.0411   0.0203   0.0202  -0.0043   0.0059   0.0441  -0.0410
 233 C   :1s    -0.1465   0.1537  -0.0023   0.1392   0.2743   0.0403  -0.1182
 234 C   :1s     0.1321   0.1837   0.0365  -0.1559  -0.1233   0.1362   0.1976
 235 C   :2px   -0.0671  -0.1591   0.0099  -0.0036  -0.0077  -0.0672  -0.0695
 236 C   :2py    0.0400  -0.0561  -0.0069  -0.0182  -0.0389   0.0197   0.0496
 237 C   :2pz    0.0120   0.0089   0.0406  -0.0647  -0.0142  -0.0899  -0.0119
 238 C   :2px   -0.0583   0.1472   0.0120  -0.1375  -0.1695  -0.0676   0.0150
 239 C   :2py    0.2274  -0.0798  -0.0644  -0.1635  -0.1234  -0.0271   0.1612
 240 C   :2pz   -0.0067   0.0246  -0.0141   0.0047  -0.0547   0.0105   0.0400
 241 C   :2px   -0.0649   0.4118   0.0255   0.2185  -0.4542   0.1704  -0.0740
 242 C   :2py    0.0531   0.0718   0.0048  -0.0627  -0.0221   0.1072   0.0302
 243 C   :2pz    0.0372   0.0077  -0.0020   0.0301  -0.0463  -0.0270  -0.0186
 245 C   :3d1-   0.0011  -0.0044   0.0027  -0.0051  -0.0011   0.0294   0.0082
 247 C   :3d1+   0.0027   0.0004  -0.0020   0.0050   0.0005   0.0002  -0.0150
 248 C   :3d2+  -0.0085  -0.0067   0.0013   0.0050   0.0125   0.0006  -0.0035
 249 C   :3d2-   0.0023  -0.0626  -0.0313   0.0532   0.0893   0.0662   0.0518
 250 C   :3d1-   0.0047  -0.0066   0.0054   0.0118   0.0330   0.0169  -0.0025
 252 C   :3d1+   0.0234  -0.0248  -0.0046   0.0026   0.0006  -0.0041   0.0212
 253 C   :3d2+   0.1461  -0.0838  -0.0576  -0.1789  -0.0203   0.0416   0.0913
 255 C   :1s    -0.0046  -0.0309  -0.0013  -0.0273  -0.0209   0.0023  -0.0099
 256 C   :1s     0.1468   0.0380  -0.0168  -0.1653  -0.1635  -0.2103  -0.0932
 257 C   :1s     0.5174  -0.1979  -0.0369  -0.5576   0.0310   0.1633   0.0253
 258 C   :2px    0.1206   0.1674   0.0054  -0.1268  -0.1530   0.0467  -0.0018
 259 C   :2py   -0.0595   0.0508  -0.0060   0.1188   0.1780   0.0542  -0.0000
 260 C   :2pz   -0.0200   0.0967   0.0269  -0.0387   0.0075  -0.3381   0.0811
 261 C   :2px   -0.0448  -0.1539  -0.0711  -0.1374   0.0804   0.1149   0.1450
 262 C   :2py    0.1462   0.1701   0.0595  -0.1907  -0.2953  -0.1805  -0.0180
 263 C   :2pz    0.0240  -0.0766  -0.0257  -0.0443   0.0248   0.0771   0.0391
 264 C   :2px   -0.0875  -0.1959   0.0917  -0.0131   0.1313  -0.0293  -0.0057
 265 C   :2py   -0.1390   0.0931  -0.0338   0.3880  -0.5304   0.0413  -0.0809
 266 C   :2pz   -0.1176   0.2106   0.0605   0.0567  -0.0136   0.0657  -0.0057
 267 C   :3d2-  -0.0079   0.0105   0.0018   0.0052   0.0054   0.0114  -0.0055
 271 C   :3d2+  -0.0024  -0.0067   0.0008   0.0056   0.0107  -0.0012  -0.0033
 272 C   :3d2-   0.1132  -0.1147  -0.0068  -0.1538  -0.2222  -0.0198   0.0594
 273 C   :3d1-   0.0021  -0.0361   0.0107   0.0134  -0.0226  -0.0437  -0.0106
 274 C   :3d0   -0.0003   0.0093   0.0020   0.0028   0.0147   0.0035   0.0009
 275 C   :3d1+   0.0492   0.0231   0.0050  -0.0454  -0.0011  -0.0103   0.0021
 276 C   :3d2+   0.2688  -0.0595  -0.0360  -0.1968  -0.0506  -0.0142   0.0349
 278 C   :1s     0.0396  -0.0110  -0.0013  -0.0209   0.0084  -0.0197   0.0213
 279 C   :1s     0.3039  -0.0926  -0.0186  -0.2021  -0.0315  -0.1189   0.0527
 280 C   :1s    -0.5699   0.1589  -0.2311   0.2934  -0.7220  -0.0058   0.2110
 281 C   :2px    0.0932  -0.0719  -0.0117   0.0829   0.2874   0.0442  -0.0183
 282 C   :2py    0.1795  -0.0312  -0.0043  -0.1204  -0.0914  -0.0449   0.0264
 283 C   :2pz    0.0065  -0.0190   0.1042   0.0528  -0.0234   0.0513  -0.0163
 284 C   :2px   -0.3575   0.0242  -0.0298   0.2350   0.1235   0.0807   0.0411
 285 C   :2py   -0.0432   0.0493  -0.0089   0.0094  -0.1200  -0.0199   0.0627
 286 C   :2pz   -0.0168   0.0118  -0.1440  -0.1246   0.0638  -0.0907   0.0580
 287 C   :2px    0.3178  -0.3915  -0.2339  -0.3355   0.4230  -0.0221   0.1223
 288 C   :2py    0.0735   0.1480  -0.1466   0.2179  -0.2019  -0.0119  -0.0075
 289 C   :2pz    0.1786  -0.3733  -0.0765  -0.1231  -0.0341  -0.0405   0.1287
 290 C   :3d2-   0.0045   0.0013  -0.0047   0.0092   0.0146   0.0019   0.0046
 291 C   :3d1-  -0.0122   0.0052  -0.0119  -0.0044   0.0021  -0.0122   0.0033
 292 C   :3d0   -0.0183   0.0007   0.0069   0.0078  -0.0032   0.0035  -0.0021
 294 C   :3d2+   0.0018  -0.0075  -0.0004   0.0051   0.0169  -0.0013  -0.0002
 295 C   :3d2-  -0.0485   0.0069  -0.0188   0.0973   0.0581   0.0367  -0.0016
 296 C   :3d1-  -0.0307  -0.0199   0.0313   0.0879  -0.0204  -0.0196  -0.0595
 297 C   :3d0    0.0490  -0.0088   0.0063  -0.0855  -0.0244  -0.0459  -0.0130
 298 C   :3d1+   0.0317   0.0071  -0.0374  -0.0370   0.0297   0.0815   0.0037
 299 C   :3d2+  -0.0193  -0.0186  -0.0223  -0.0163   0.0941   0.0342   0.0146
 301 C   :1s    -0.0195  -0.0043   0.0539   0.0522  -0.0088   0.0555  -0.0183
 302 C   :1s    -0.0773   0.0056   0.0690   0.2124  -0.0188   0.1167  -0.0570
 303 C   :1s     0.0357   0.4498  -0.0858   0.2384   0.1174   0.0933  -0.2759
 304 C   :2px    0.0247   0.0618  -0.0928   0.0070  -0.3214  -0.0395   0.0131
 305 C   :2py   -0.3529   0.0237  -0.2605   0.1030   0.0586   0.0863  -0.0155
 306 C   :2pz   -0.0783   0.0300  -0.2935  -0.0567   0.0218  -0.0534   0.0237
 307 C   :2px   -0.0101  -0.0089   0.0283   0.0255   0.0251  -0.0151  -0.0159
 308 C   :2py    0.0383  -0.0020   0.0403   0.0239  -0.0076   0.0234   0.0001
 309 C   :2pz    0.0309   0.0065   0.0331  -0.0474   0.0146  -0.0214   0.0154
 310 C   :2px   -0.0211   0.1031   0.0001  -0.0044  -0.0875   0.0001  -0.0293
 311 C   :2py    0.0125   0.0063  -0.0122  -0.0379   0.0460  -0.0015  -0.0085
 312 C   :2pz   -0.0237  -0.0333   0.0006  -0.0407  -0.0148  -0.0061   0.0502
 313 C   :3d2-   0.0030  -0.0031   0.0038   0.0010   0.0115   0.0025  -0.0012
 314 C   :3d1-  -0.0143   0.0015  -0.0156   0.0025   0.0065   0.0024  -0.0007
 315 C   :3d0   -0.0163   0.0030  -0.0120   0.0068   0.0000   0.0036  -0.0005
 316 C   :3d1+  -0.0000   0.0056  -0.0057  -0.0041  -0.0250  -0.0047   0.0024
 319 C   :3d1-   0.0012  -0.0105  -0.0182  -0.0223   0.0228  -0.0214  -0.0018
 320 C   :3d0   -0.0334   0.0210  -0.0040   0.0212  -0.0168   0.0100  -0.0014
 321 C   :3d1+   0.0008   0.0088  -0.0098  -0.0228  -0.0204   0.0040   0.0046
 322 C   :3d2+  -0.0034  -0.0046  -0.0007  -0.0026   0.0158  -0.0105  -0.0064
 324 C   :1s    -0.0437   0.0215  -0.0368   0.0002   0.0015  -0.0386   0.0180
 325 C   :1s    -0.0648   0.0075  -0.0724  -0.0986   0.0522  -0.0247   0.1202
 326 C   :1s     0.4056  -0.3374  -0.0906  -0.1690   0.0715  -0.0468   0.1286
 327 C   :2px   -0.3568   0.0258   0.1223  -0.1052  -0.2305   0.0222  -0.0270
 328 C   :2py   -0.1140   0.0278   0.2093   0.0858   0.0794  -0.0588   0.0229
 329 C   :2pz    0.0159   0.0735  -0.3968  -0.0368   0.0093  -0.0201   0.0259
 330 C   :2px    0.0635   0.0077  -0.0499  -0.0134   0.0514   0.0304   0.0326
 331 C   :2py   -0.0100   0.0099  -0.0515   0.0048  -0.0047   0.0006   0.0283
 332 C   :2pz    0.0088  -0.0039   0.0375  -0.0476  -0.0018  -0.0131   0.0354
 333 C   :2px   -0.0625   0.0202   0.0473   0.0333  -0.0542  -0.0166  -0.0438
 334 C   :2py    0.0275  -0.0300   0.0327  -0.0335   0.0427   0.0055   0.0118
 335 C   :2pz    0.1006   0.0127  -0.0618  -0.0457   0.0318  -0.0196   0.0355
 336 C   :3d2-   0.0109  -0.0008  -0.0107   0.0034   0.0139  -0.0016   0.0017
 338 C   :3d0   -0.0131  -0.0001   0.0231   0.0049  -0.0019  -0.0001  -0.0007
 339 C   :3d1+   0.0083  -0.0013  -0.0027   0.0068   0.0164  -0.0006   0.0009
 340 C   :3d2+   0.0041  -0.0014   0.0074   0.0073   0.0119  -0.0000   0.0002
 341 C   :3d2-   0.0064   0.0000  -0.0166   0.0052   0.0202   0.0119   0.0089
 342 C   :3d1-  -0.0281   0.0073  -0.0051   0.0020  -0.0197  -0.0124   0.0049
 343 C   :3d0   -0.0136  -0.0005   0.0270  -0.0087  -0.0130  -0.0025  -0.0034
 344 C   :3d1+   0.0043  -0.0037  -0.0122   0.0022   0.0201   0.0116   0.0082
 345 C   :3d2+   0.0203  -0.0017   0.0006  -0.0094   0.0177   0.0099   0.0041
 347 C   :1s     0.0037   0.0049   0.0021   0.0151   0.0165  -0.0059  -0.0064
 348 C   :1s    -0.2526   0.0845   0.0182   0.1551   0.0786   0.0274  -0.0480
 349 C   :1s    -0.2433  -0.4836  -0.0249   0.0756   0.2438  -0.1354  -0.0332
 350 C   :2px   -0.0917  -0.1988  -0.0139   0.0981   0.1126   0.0169  -0.0278
 351 C   :2py    0.0689  -0.2567  -0.0515  -0.0539  -0.1100  -0.2451   0.0861
 352 C   :2pz   -0.0156   0.1480   0.0263   0.0483   0.1123  -0.2785   0.1397
 353 C   :2px   -0.1624   0.0088  -0.0255   0.0068   0.0513   0.1239   0.1057
 354 C   :2py    0.0236   0.1190   0.0007  -0.0545  -0.1595  -0.0693  -0.0404
 355 C   :2pz    0.0101  -0.0948  -0.0022  -0.0204   0.0272   0.0751   0.0412
 356 C   :2px   -0.1590   0.0270   0.0582   0.1476   0.0707   0.0013   0.0032
 357 C   :2py   -0.0080  -0.0812   0.0137  -0.0576   0.0173   0.0307   0.0458
 358 C   :2pz   -0.0060   0.0374   0.0066  -0.0139   0.0585  -0.0647  -0.0293
 359 C   :3d2-  -0.0026   0.0136   0.0019   0.0038   0.0078   0.0059  -0.0008
 364 C   :3d2-   0.0176  -0.2492  -0.0273  -0.0484  -0.0689   0.0575   0.0479
 365 C   :3d1-   0.0217  -0.0243  -0.0065  -0.0320  -0.0188   0.0384   0.0322
 366 C   :3d0   -0.0198   0.0277   0.0085   0.0185   0.0072  -0.0169  -0.0206
 367 C   :3d1+  -0.0042   0.1138   0.0188  -0.0031   0.0040  -0.0362  -0.0171
 368 C   :3d2+  -0.0282  -0.0539  -0.0033  -0.0121   0.0069   0.0664   0.0475
 370 C   :1s    -0.0157   0.0060   0.0007   0.0039  -0.0106   0.0277  -0.0018
 371 C   :1s    -0.0753   0.2420   0.0471   0.0389   0.0669  -0.0046  -0.0067
 372 C   :1s    -0.1894   0.8212   0.2572   0.1764   0.1252   0.1814   0.0211
 373 C   :2px    0.0890   0.2237   0.0111  -0.0577  -0.0932   0.0527  -0.0032
 374 C   :2py   -0.0164   0.2360   0.0497   0.0374   0.1239   0.0102   0.0244
 375 C   :2pz    0.0650  -0.1172  -0.0244  -0.0322  -0.0940  -0.1014   0.0416
 376 C   :2px   -0.0898   0.0965   0.0060   0.0192   0.0446  -0.0167   0.0158
 377 C   :2py    0.0294   0.0347  -0.0218  -0.0369  -0.0885  -0.0670  -0.0210
 378 C   :2pz   -0.0121  -0.0035   0.0121   0.0033   0.0399   0.0409   0.0106
 379 C   :2px    0.1232  -0.4206  -0.1240  -0.0908  -0.1059  -0.0294   0.0282
 380 C   :2py    0.0200   0.0113   0.0296   0.0297  -0.0433   0.0360   0.0245
 381 C   :2pz    0.0070  -0.0406  -0.0316  -0.0159  -0.0071  -0.0177   0.0083
 382 C   :3d2-  -0.0044   0.0182   0.0035   0.0030   0.0082  -0.0046   0.0029
 385 C   :3d1+  -0.0004  -0.0095  -0.0015  -0.0014  -0.0023  -0.0151   0.0060
 387 C   :3d2-   0.0048  -0.0883  -0.0210  -0.0149  -0.0510  -0.0109   0.0052
 388 C   :3d1-   0.0153  -0.0337  -0.0049  -0.0127  -0.0154   0.0124   0.0060
 389 C   :3d0   -0.0187   0.0328   0.0057   0.0181   0.0239  -0.0037  -0.0021
 390 C   :3d1+   0.0026   0.0468   0.0094   0.0093   0.0297   0.0029   0.0038
 391 C   :3d2+   0.0385  -0.0817  -0.0094  -0.0234  -0.0295   0.0254   0.0091
 393 C   :1s    -0.0065  -0.0161   0.0003  -0.0212  -0.0298  -0.0186   0.0126
 394 C   :1s    -0.0412  -0.2959  -0.0472  -0.0279  -0.0151   0.1258   0.0808
 395 C   :1s     0.0877  -0.3184  -0.0711   0.0328  -0.1276  -0.0762  -0.0595
 396 C   :2px    0.1038   0.1806   0.0202  -0.1017  -0.1113   0.0025   0.0187
 397 C   :2py   -0.0149   0.2013   0.0401   0.0511   0.1188  -0.0045   0.0453
 398 C   :2pz    0.0972  -0.1339  -0.0394  -0.0371  -0.0891  -0.1434   0.0543
 399 C   :2px    0.0051  -0.2834  -0.0239   0.0112   0.0705   0.0440   0.0808
 400 C   :2py   -0.0019   0.0463   0.0045   0.0181  -0.0634  -0.1179  -0.0805
 401 C   :2pz   -0.0367  -0.0714   0.0021   0.0018   0.0521   0.0918   0.0493
 402 C   :2px   -0.0535   0.4148   0.0768  -0.0027   0.0307   0.0590  -0.0107
 403 C   :2py   -0.0096  -0.1766  -0.0280   0.0080   0.0132   0.0011   0.0080
 404 C   :2pz    0.0014   0.1477   0.0281   0.0170  -0.0136   0.0093   0.0027
 405 C   :3d2-  -0.0032   0.0218   0.0039   0.0010   0.0054  -0.0050   0.0036
 407 C   :3d0    0.0012  -0.0002  -0.0001  -0.0010  -0.0011  -0.0107   0.0050
 408 C   :3d1+  -0.0017  -0.0132  -0.0020  -0.0000  -0.0016  -0.0121   0.0040
 410 C   :3d2-  -0.0031  -0.0689  -0.0208  -0.0030  -0.0358  -0.0133  -0.0116
 411 C   :3d1-   0.0138   0.0433   0.0023  -0.0069  -0.0241  -0.0174  -0.0122
 412 C   :3d0   -0.0220  -0.0429  -0.0014   0.0095   0.0179   0.0076   0.0088
 413 C   :3d1+   0.0021   0.0677   0.0155   0.0077   0.0359   0.0038   0.0032
 414 C   :3d2+   0.0197   0.1014   0.0132  -0.0105  -0.0321  -0.0290  -0.0327
 416 C   :1s     0.0070  -0.0180  -0.0001   0.0009   0.0089  -0.0104   0.0008
 417 C   :1s    -0.0412  -0.1316  -0.0248   0.0058  -0.0102  -0.0131   0.0141
 418 C   :1s     0.0720  -0.8821  -0.2115  -0.1409  -0.0512  -0.1309   0.0098
 419 C   :2px   -0.1090  -0.1817  -0.0042   0.0653   0.1055  -0.0437   0.0076
 420 C   :2py    0.0930  -0.2499  -0.0470  -0.0395  -0.1104   0.0966  -0.0506
 421 C   :2pz    0.0150   0.1054   0.0214   0.0258   0.0377   0.2114  -0.0877
 422 C   :2px   -0.0261   0.2031   0.0100   0.0037   0.0110  -0.0179  -0.0073
 423 C   :2py   -0.0120   0.0533   0.0206   0.0074   0.0098   0.0358   0.0185
 424 C   :2pz   -0.0124  -0.0026  -0.0100   0.0063   0.0099  -0.0434   0.0000
 425 C   :2px    0.0492  -0.2990  -0.0633  -0.0078  -0.0414  -0.0203   0.0193
 426 C   :2py   -0.0437   0.0436   0.0079  -0.0039   0.0532  -0.0108  -0.0202
 427 C   :2pz    0.0338  -0.0615  -0.0132  -0.0040  -0.0287   0.0115   0.0027
 428 C   :3d2-  -0.0011   0.0224   0.0040   0.0016   0.0065  -0.0015   0.0024
 430 C   :3d0   -0.0008   0.0002   0.0001  -0.0007  -0.0007  -0.0104   0.0046
 431 C   :3d1+   0.0004  -0.0136  -0.0022  -0.0005  -0.0030  -0.0080   0.0030
 433 C   :3d2-   0.0046  -0.1040  -0.0218  -0.0080  -0.0226  -0.0108  -0.0001
 435 C   :3d0   -0.0007  -0.0102  -0.0006   0.0008   0.0029  -0.0018   0.0017
[...]
 66   YDIPLEN   ZDIPLEN    0.110000        3.430932        0.072706

      Averaged value       0.110000      307.155997       15.260405

 67   XDIPLEN   XDIPLEN    0.111000      518.825722       45.470335
 68   YDIPLEN   YDIPLEN    0.111000      229.957929        2.580400
 69   ZDIPLEN   ZDIPLEN    0.111000      182.372457        1.461609
 70   XDIPLEN   YDIPLEN    0.111000       41.290521        4.830241
 71   XDIPLEN   ZDIPLEN    0.111000       -0.875327       -2.257617
 72   YDIPLEN   ZDIPLEN    0.111000        3.449744        0.061437

      Averaged value       0.111000      310.385369       16.504115

 73   XDIPLEN   XDIPLEN    0.112000      528.352424       49.589083
 74   YDIPLEN   YDIPLEN    0.112000      230.523178        2.663015
 75   ZDIPLEN   ZDIPLEN    0.112000      182.692327        1.506783
 76   XDIPLEN   YDIPLEN    0.112000       42.309493        5.236241
 77   XDIPLEN   ZDIPLEN    0.112000       -1.336353       -2.526127
 78   YDIPLEN   ZDIPLEN    0.112000        3.466722        0.047421

      Averaged value       0.112000      313.855976       17.919627

 79   XDIPLEN   XDIPLEN    0.113000      538.661461       54.313090
 80   YDIPLEN   YDIPLEN    0.113000      231.105553        2.752392
 81   ZDIPLEN   ZDIPLEN    0.113000      183.021479        1.555871
 82   XDIPLEN   YDIPLEN    0.113000       43.406327        5.699555
 83   XDIPLEN   ZDIPLEN    0.113000       -1.847405       -2.837414
 84   YDIPLEN   ZDIPLEN    0.113000        3.481451        0.030033

      Averaged value       0.113000      317.596164       19.540451

 85   XDIPLEN   XDIPLEN    0.114000      549.848294       59.766304
 86   YDIPLEN   YDIPLEN    0.114000      231.706216        2.849684
 87   ZDIPLEN   ZDIPLEN    0.114000      183.360571        1.609574
 88   XDIPLEN   YDIPLEN    0.114000       44.590142        6.231743
 89   XDIPLEN   ZDIPLEN    0.114000       -2.415141       -3.200440
 90   YDIPLEN   ZDIPLEN    0.114000        3.493441        0.008487

      Averaged value       0.114000      321.638360       21.408521

 91   XDIPLEN   XDIPLEN    0.115000      562.021903       66.105288
 92   YDIPLEN   YDIPLEN    0.115000      232.326468        2.956330
 93   ZDIPLEN   ZDIPLEN    0.115000      183.710344        1.668770
 94   XDIPLEN   YDIPLEN    0.115000       45.871328        6.847387
 95   XDIPLEN   ZDIPLEN    0.115000       -3.047188       -3.626543
 96   YDIPLEN   ZDIPLEN    0.115000        3.502124       -0.018221

      Averaged value       0.115000      326.019572       23.576796

 97   XDIPLEN   XDIPLEN    0.116000      575.306011       73.529709
 98   YDIPLEN   YDIPLEN    0.116000      232.967754        3.074146
 99   ZDIPLEN   ZDIPLEN    0.116000      184.071625        1.734570
100   XDIPLEN   YDIPLEN    0.116000       47.261658        7.565070
101   XDIPLEN   ZDIPLEN    0.116000       -3.752228       -4.130202
102   YDIPLEN   ZDIPLEN    0.116000        3.506843       -0.051382

      Averaged value       0.116000      330.781797       26.112809

103   XDIPLEN   XDIPLEN    0.117000      589.839591       82.296792
104   YDIPLEN   YDIPLEN    0.117000      233.631676        3.205453
105   ZDIPLEN   ZDIPLEN    0.117000      184.445333        1.808397
106   XDIPLEN   YDIPLEN    0.117000       48.774342        8.408706
107   XDIPLEN   ZDIPLEN    0.117000       -4.540034       -4.730091
108   YDIPLEN   ZDIPLEN    0.117000        3.506851       -0.092668

      Averaged value       0.117000      335.972200       29.103547

109   XDIPLEN   XDIPLEN    0.118000      605.775756       92.741415
110   YDIPLEN   YDIPLEN    0.118000      234.319978        3.353242
111   ZDIPLEN   ZDIPLEN    0.118000      184.832473        1.892091
112   XDIPLEN   YDIPLEN    0.118000       50.423921        9.409409
113   XDIPLEN   ZDIPLEN    0.118000       -5.421386       -5.450547
114   YDIPLEN   ZDIPLEN    0.118000        3.501320       -0.144274

      Averaged value       0.118000      341.642736       32.662249

115   XDIPLEN   XDIPLEN    0.119000      623.277342      105.304274
116   YDIPLEN   YDIPLEN    0.119000      235.034518        3.521422
117   ZDIPLEN   ZDIPLEN    0.119000      185.234114        1.988064
118   XDIPLEN   YDIPLEN    0.119000       52.225864       10.608090
119   XDIPLEN   ZDIPLEN    0.119000       -6.407746       -6.323627
120   YDIPLEN   ZDIPLEN    0.119000        3.489370       -0.209100

      Averaged value       0.119000      347.848658       36.937920

121   XDIPLEN   XDIPLEN    0.120000      642.506016      120.571761
122   YDIPLEN   YDIPLEN    0.120000      235.777171        3.715162
123   ZDIPLEN   ZDIPLEN    0.120000      185.651330        2.099508
124   XDIPLEN   YDIPLEN    0.120000       54.195551       12.059142
125   XDIPLEN   ZDIPLEN    0.120000       -7.510455       -7.392007
126   YDIPLEN   ZDIPLEN    0.120000        3.470148       -0.291024

      Averaged value       0.120000      354.644839       42.128810

127   XDIPLEN   XDIPLEN    0.121000      663.598224      139.331279
128   YDIPLEN   YDIPLEN    0.121000      236.549632        3.941367
129   ZDIPLEN   ZDIPLEN    0.121000      186.085076        2.230697
130   XDIPLEN   YDIPLEN    0.121000       56.346090       13.835614
131   XDIPLEN   ZDIPLEN    0.121000       -8.739000       -8.713069
132   YDIPLEN   ZDIPLEN    0.121000        3.442985       -0.395278

      Averaged value       0.121000      362.077644       48.501114

133   XDIPLEN   XDIPLEN    0.122000      686.617874      162.650596
134   YDIPLEN   YDIPLEN    0.122000      237.353004        4.209354
135   ZDIPLEN   ZDIPLEN    0.122000      186.535932        2.387404
136   XDIPLEN   YDIPLEN    0.122000       58.683884       16.036468
137   XDIPLEN   ZDIPLEN    0.122000      -10.097509      -10.364629
138   YDIPLEN   ZDIPLEN    0.122000        3.407728       -0.528976

      Averaged value       0.122000      370.168937       56.415785

139   XDIPLEN   XDIPLEN    0.123000      711.461923      191.984337
140   YDIPLEN   YDIPLEN    0.123000      238.187003        4.531769
141   ZDIPLEN   ZDIPLEN    0.123000      187.003727        2.577492
142   XDIPLEN   YDIPLEN    0.123000       61.199938       18.796494
143   XDIPLEN   ZDIPLEN    0.123000      -11.577886      -12.452762
144   YDIPLEN   ZDIPLEN    0.123000        3.365370       -0.701838

      Averaged value       0.123000      378.884218       66.364533

145   XDIPLEN   XDIPLEN    0.124000      737.679293      229.311658
146   YDIPLEN   YDIPLEN    0.124000      239.048405        4.925767
147   ZDIPLEN   ZDIPLEN    0.124000      187.486087        2.811584
148   XDIPLEN   YDIPLEN    0.124000       63.853099       22.299033
149   XDIPLEN   ZDIPLEN    0.124000      -13.146559      -15.121841
150   YDIPLEN   ZDIPLEN    0.124000        3.319281       -0.927118

      Averaged value       0.124000      388.071262       79.016336

151   XDIPLEN   XDIPLEN    0.125000      764.127830      277.286171
152   YDIPLEN   YDIPLEN    0.125000      239.928115        5.414298
153   ZDIPLEN   ZDIPLEN    0.125000      187.977326        3.103959
154   XDIPLEN   YDIPLEN    0.125000       66.538317       26.789852
155   XDIPLEN   ZDIPLEN    0.125000      -14.719424      -18.565493
156   YDIPLEN   ZDIPLEN    0.125000        3.277531       -1.222616

      Averaged value       0.125000      397.344424       95.268142

157   XDIPLEN   XDIPLEN    0.126000      788.343128      339.317726
158   YDIPLEN   YDIPLEN    0.126000      240.805769        6.026809
159   ZDIPLEN   ZDIPLEN    0.126000      188.464606        3.472925
160   XDIPLEN   YDIPLEN    0.126000       69.028256       32.584713
161   XDIPLEN   ZDIPLEN    0.126000      -16.115725      -23.032571
162   YDIPLEN   ZDIPLEN    0.126000        3.257154       -1.611231

      Averaged value       0.126000      405.871168      116.272487

163   XDIPLEN   XDIPLEN    0.127000      805.445891      419.336190
164   YDIPLEN   YDIPLEN    0.127000      241.640382        6.797223
165   ZDIPLEN   ZDIPLEN    0.127000      188.922219        3.939579
166   XDIPLEN   YDIPLEN    0.127000       70.872205       40.047506
167   XDIPLEN   ZDIPLEN    0.127000      -16.978221      -28.809878
168   YDIPLEN   ZDIPLEN    0.127000        3.291541       -2.119356

      Averaged value       0.127000      412.002831      143.357664

169   XDIPLEN   XDIPLEN    0.128000      806.508178      520.598686
170   YDIPLEN   YDIPLEN    0.128000      242.356372        7.753738
171   ZDIPLEN   ZDIPLEN    0.128000      189.302875        4.521439
172   XDIPLEN   YDIPLEN    0.128000       71.244910       49.479955
173   XDIPLEN   ZDIPLEN    0.128000      -16.653814      -36.135072
174   YDIPLEN   ZDIPLEN    0.128000        3.441488       -2.768823

      Averaged value       0.128000      412.722475      177.624621

175   XDIPLEN   XDIPLEN    0.129000      777.003319      642.290396
176   YDIPLEN   YDIPLEN    0.129000      242.830292        8.889724
177   ZDIPLEN   ZDIPLEN    0.129000      189.529427        5.214305
178   XDIPLEN   YDIPLEN    0.129000       68.803178       60.807025
179   XDIPLEN   ZDIPLEN    0.129000      -14.080308      -44.948249
180   YDIPLEN   ZDIPLEN    0.129000        3.805672       -3.553915

      Averaged value       0.129000      403.121013      218.798141

181   XDIPLEN   XDIPLEN    0.130000      698.202782      772.747186
182   YDIPLEN   YDIPLEN    0.130000      242.902797       10.105711
183   ZDIPLEN   ZDIPLEN    0.130000      189.502331        5.956080
184   XDIPLEN   YDIPLEN    0.130000       61.815117       72.949920
185   XDIPLEN   ZDIPLEN    0.130000       -7.888447      -54.396840
186   YDIPLEN   ZDIPLEN    0.130000        4.511219       -4.395551

      Averaged value       0.130000      376.869303      262.936326

187   XDIPLEN   XDIPLEN    0.131000      557.441425      882.444173
188   YDIPLEN   YDIPLEN    0.131000      242.466528       11.149375
189   ZDIPLEN   ZDIPLEN    0.131000      189.154441        6.589356
190   XDIPLEN   YDIPLEN    0.131000       49.109932       83.177343
191   XDIPLEN   ZDIPLEN    0.131000        2.848126      -62.323345
192   YDIPLEN   ZDIPLEN    0.131000        5.644316       -5.093894

      Averaged value       0.131000      329.687465      300.060968

193   XDIPLEN   XDIPLEN    0.132000      367.808106      930.365451
194   YDIPLEN   YDIPLEN    0.132000      241.634687       11.670067
195   ZDIPLEN   ZDIPLEN    0.132000      188.556112        6.895410
196   XDIPLEN   YDIPLEN    0.132000       31.899782       87.694860
197   XDIPLEN   ZDIPLEN    0.132000       17.174304      -65.730692
198   YDIPLEN   ZDIPLEN    0.132000        7.117115       -5.371394

      Averaged value       0.132000      265.999635      316.310309

199   XDIPLEN   XDIPLEN    0.133000      174.684962      893.604948
200   YDIPLEN   YDIPLEN    0.133000      240.797025       11.472231
201   ZDIPLEN   ZDIPLEN    0.133000      187.950111        6.752207
202   XDIPLEN   YDIPLEN    0.133000       14.384831       84.383696
203   XDIPLEN   ZDIPLEN    0.133000       31.775780      -62.944832
204   YDIPLEN   ZDIPLEN    0.133000        8.623536       -5.072886

      Averaged value       0.133000      201.144033      303.943129

205   XDIPLEN   XDIPLEN    0.134000       26.163829      790.242892
206   YDIPLEN   YDIPLEN    0.134000      240.366602       10.711243
207   ZDIPLEN   ZDIPLEN    0.134000      187.593713        6.256507
208   XDIPLEN   YDIPLEN    0.134000        1.016074       74.917359
209   XDIPLEN   ZDIPLEN    0.134000       43.140397      -55.286052
210   YDIPLEN   ZDIPLEN    0.134000        9.839250       -4.320213

      Averaged value       0.134000      151.374715      269.070214

211   XDIPLEN   XDIPLEN    0.135000      -60.097461      660.974757
212   YDIPLEN   YDIPLEN    0.135000      240.496061        9.736159
213   ZDIPLEN   ZDIPLEN    0.135000      187.581800        5.625812
214   XDIPLEN   YDIPLEN    0.135000       -6.571233       63.061894
215   XDIPLEN   ZDIPLEN    0.135000       49.979597      -45.726799
216   YDIPLEN   ZDIPLEN    0.135000       10.645727       -3.388043

      Averaged value       0.135000      122.660133      225.445576

217   XDIPLEN   XDIPLEN    0.136000      -94.572106      537.703933
218   YDIPLEN   YDIPLEN    0.136000      241.097499        8.820880
219   ZDIPLEN   ZDIPLEN    0.136000      187.859164        5.030734
220   XDIPLEN   YDIPLEN    0.136000       -9.344456       51.769952
221   XDIPLEN   ZDIPLEN    0.136000       53.060182      -36.597087
222   YDIPLEN   ZDIPLEN    0.136000       11.114678       -2.491555

      Averaged value       0.136000      111.461519      183.851849

223   XDIPLEN   XDIPLEN    0.137000      -96.038234      434.142830
224   YDIPLEN   YDIPLEN    0.137000      242.011670        8.083605
225   ZDIPLEN   ZDIPLEN    0.137000      188.326331        4.544830
226   XDIPLEN   YDIPLEN    0.137000       -9.039260       42.311242
227   XDIPLEN   ZDIPLEN    0.137000       53.755862      -28.897811
228   YDIPLEN   ZDIPLEN    0.137000       11.374050       -1.722896

      Averaged value       0.137000      111.433256      148.923755

229   XDIPLEN   XDIPLEN    0.138000      -79.773067      352.075009
230   YDIPLEN   YDIPLEN    0.138000      243.109865        7.540606
231   ZDIPLEN   ZDIPLEN    0.138000      188.902590        4.178039
232   XDIPLEN   YDIPLEN    0.138000       -7.067141       34.851858
233   XDIPLEN   ZDIPLEN    0.138000       53.184760      -22.758239
234   YDIPLEN   ZDIPLEN    0.138000       11.528230       -1.093503

      Averaged value       0.138000      117.413129      121.264551

235   XDIPLEN   XDIPLEN    0.139000      -55.368195      288.521074
236   YDIPLEN   YDIPLEN    0.139000      244.312110        7.167495
237   ZDIPLEN   ZDIPLEN    0.139000      189.537656        3.914934
238   XDIPLEN   YDIPLEN    0.139000       -4.313344       29.117381
239   XDIPLEN   ZDIPLEN    0.139000       52.049818      -17.959511
240   YDIPLEN   ZDIPLEN    0.139000       11.643297       -0.582523

      Averaged value       0.139000      126.160524       99.867834

241   XDIPLEN   XDIPLEN    0.140000      -28.127329      239.543125
242   YDIPLEN   YDIPLEN    0.140000      245.575361        6.931841
243   ZDIPLEN   ZDIPLEN    0.140000      190.204229        3.735042
244   XDIPLEN   YDIPLEN    0.140000       -1.266138       24.744894
245   XDIPLEN   ZDIPLEN    0.140000       50.740944      -14.212572
246   YDIPLEN   ZDIPLEN    0.140000       11.756480       -0.162520

      Averaged value       0.140000      135.884087       83.403336

247   XDIPLEN   XDIPLEN    0.141000       -0.753148      201.641765
248   YDIPLEN   YDIPLEN    0.141000      246.879086        6.805159
249   ZDIPLEN   ZDIPLEN    0.141000      190.888994        3.620313
250   XDIPLEN   YDIPLEN    0.141000        1.827142       21.412269
251   XDIPLEN   ZDIPLEN    0.141000       49.458283      -11.260196
252   YDIPLEN   ZDIPLEN    0.141000       11.887588        0.191106

      Averaged value       0.141000      145.671644       70.689079

253   XDIPLEN   XDIPLEN    0.142000       25.487896      172.069984
254   YDIPLEN   YDIPLEN    0.142000      248.215331        6.765631
255   ZDIPLEN   ZDIPLEN    0.142000      191.586427        3.556809
256   XDIPLEN   YDIPLEN    0.142000        4.852362       18.867257
257   XDIPLEN   ZDIPLEN    0.142000       48.297351       -8.899886
258   YDIPLEN   ZDIPLEN    0.142000       12.046900        0.498021

      Averaged value       0.142000      155.096551       60.797475

259   XDIPLEN   XDIPLEN    0.143000       50.084264      148.773386
260   YDIPLEN   YDIPLEN    0.143000      249.582930        6.797642
261   ZDIPLEN   ZDIPLEN    0.143000      192.295167        3.534405
262   XDIPLEN   YDIPLEN    0.143000        7.765594       16.921999
263   XDIPLEN   ZDIPLEN    0.143000       47.298856       -6.979457
264   YDIPLEN   ZDIPLEN    0.143000       12.239796        0.773385

      Averaged value       0.143000      163.987453       53.035145

265   XDIPLEN   XDIPLEN    0.144000       72.907058      130.242553
266   YDIPLEN   YDIPLEN    0.144000      250.984355        6.890567
267   ZDIPLEN   ZDIPLEN    0.144000      193.016053        3.546024
268   XDIPLEN   YDIPLEN    0.144000       10.558729       15.439438
269   XDIPLEN   ZDIPLEN    0.144000       46.475939       -5.386193
270   YDIPLEN   ZDIPLEN    0.144000       12.469309        1.028893

      Averaged value       0.144000      172.302489       46.893048

271   XDIPLEN   XDIPLEN    0.145000       94.012900      115.372266
272   YDIPLEN   YDIPLEN    0.145000      252.424091        7.037634
273   ZDIPLEN   ZDIPLEN    0.145000      193.751095        3.586913
274   XDIPLEN   YDIPLEN    0.145000       13.241297       14.320363
275   XDIPLEN   ZDIPLEN    0.145000       45.828638       -4.036494
276   YDIPLEN   ZDIPLEN    0.145000       12.737487        1.273771

      Averaged value       0.145000      180.062695       41.998938

277   XDIPLEN   XDIPLEN    0.146000      113.541487      103.350493
278   YDIPLEN   YDIPLEN    0.146000      253.907818        7.235056
279   ZDIPLEN   ZDIPLEN    0.146000      194.502953        3.654088
280   XDIPLEN   YDIPLEN    0.146000       15.831061       13.493241
281   XDIPLEN   ZDIPLEN    0.146000       45.351439       -2.867674
282   YDIPLEN   ZDIPLEN    0.146000       13.046131        1.515577

      Averaged value       0.146000      187.317419       38.079879

283   XDIPLEN   XDIPLEN    0.147000      131.663341       93.576777
284   YDIPLEN   YDIPLEN    0.147000      255.442037        7.481443
285   ZDIPLEN   ZDIPLEN    0.147000      195.274688        3.745942
286   XDIPLEN   YDIPLEN    0.147000       18.349268       12.906782
287   XDIPLEN   ZDIPLEN    0.147000       45.037167       -1.831893
288   YDIPLEN   ZDIPLEN    0.147000       13.397195        1.760829

      Averaged value       0.147000      194.126689       34.934720

289   XDIPLEN   XDIPLEN    0.148000      148.553973       85.603952
290   YDIPLEN   YDIPLEN    0.148000      257.033934        7.777427
291   ZDIPLEN   ZDIPLEN    0.148000      196.069664        3.861989
292   XDIPLEN   YDIPLEN    0.148000       20.818354       12.524703
293   XDIPLEN   ZDIPLEN    0.148000       44.878973       -0.891753
294   YDIPLEN   ZDIPLEN    0.148000       13.793018        2.015485

      Averaged value       0.148000      200.552524       32.414456

295   XDIPLEN   XDIPLEN    0.149000      164.381882       79.096961
296   YDIPLEN   YDIPLEN    0.149000      258.691381        8.125488
297   ZDIPLEN   ZDIPLEN    0.149000      196.891524        4.002721
298   XDIPLEN   YDIPLEN    0.149000       23.260955       12.322112
299   XDIPLEN   ZDIPLEN    0.149000       44.871310       -0.017119
300   YDIPLEN   ZDIPLEN    0.149000       14.236471        2.285338

      Averaged value       0.149000      206.654929       30.408390

301   XDIPLEN   XDIPLEN    0.150000      179.303750       73.803846
302   YDIPLEN   YDIPLEN    0.150000      260.423007        8.529918
303   ZDIPLEN   ZDIPLEN    0.150000      197.744215        4.169539
304   XDIPLEN   YDIPLEN    0.150000       25.699591       12.283077
305   XDIPLEN   ZDIPLEN    0.150000       45.010415        0.817230
306   YDIPLEN   ZDIPLEN    0.150000       14.731070        2.576359

      Averaged value       0.150000      212.490324       28.834434
 
 ------------------------------------------------------------------
 Damping parameter equals  0.004557 au = 0.1240 eV = 1000.1 cm-1

  Total CPU  time used in RESPONSE:   5 hours 47 minutes 34 seconds
  Total wall time used in RESPONSE:   5 hours 47 minutes 50 seconds


                   .-------------------------------------------.
                   | End of Dynamic Property Section (RESPONS) |
                   `-------------------------------------------'

  Total CPU  time used in DALTON:   8 hours 23 minutes  4 seconds
  Total wall time used in DALTON:   8 hours 23 minutes 26 seconds

 
     Date and time (Linux)  : Mon Sep  9 16:10:19 2019
     Host name              : node149.cluster                         
