

     ************************************************************************
     *************** Dalton - An Electronic Structure Program ***************
     ************************************************************************

    This is output from DALTON release Dalton2016.1 (2016)
         ( Web site: http://daltonprogram.org )

   ----------------------------------------------------------------------------

    NOTE:
     
    Dalton is an experimental code for the evaluation of molecular
    properties using (MC)SCF, DFT, CI, and CC wave functions.
    The authors accept no responsibility for the performance of
    the code or for the correctness of the results.
     
    The code (in whole or part) is provided under a licence and
    is not to be reproduced for further distribution without
    the written permission of the authors or their representatives.
     
    See the home page "http://daltonprogram.org" for further information.
     
    If results obtained with this code are published,
    the appropriate citations would be both of:
     
       K. Aidas, C. Angeli, K. L. Bak, V. Bakken, R. Bast,
       L. Boman, O. Christiansen, R. Cimiraglia, S. Coriani,
       P. Dahle, E. K. Dalskov, U. Ekstroem,
       T. Enevoldsen, J. J. Eriksen, P. Ettenhuber, B. Fernandez,
       L. Ferrighi, H. Fliegl, L. Frediani, K. Hald, A. Halkier,
       C. Haettig, H. Heiberg, T. Helgaker, A. C. Hennum,
       H. Hettema, E. Hjertenaes, S. Hoest, I.-M. Hoeyvik,
       M. F. Iozzi, B. Jansik, H. J. Aa. Jensen, D. Jonsson,
       P. Joergensen, J. Kauczor, S. Kirpekar,
       T. Kjaergaard, W. Klopper, S. Knecht, R. Kobayashi, H. Koch,
       J. Kongsted, A. Krapp, K. Kristensen, A. Ligabue,
       O. B. Lutnaes, J. I. Melo, K. V. Mikkelsen, R. H. Myhre,
       C. Neiss, C. B. Nielsen, P. Norman, J. Olsen,
       J. M. H. Olsen, A. Osted, M. J. Packer, F. Pawlowski,
       T. B. Pedersen, P. F. Provasi, S. Reine, Z. Rinkevicius,
       T. A. Ruden, K. Ruud, V. Rybkin, P. Salek, C. C. M. Samson,
       A. Sanchez de Meras, T. Saue, S. P. A. Sauer,
       B. Schimmelpfennig, K. Sneskov, A. H. Steindal,
       K. O. Sylvester-Hvid, P. R. Taylor, A. M. Teale,
       E. I. Tellgren, D. P. Tew, A. J. Thorvaldsen, L. Thoegersen,
       O. Vahtras, M. A. Watson, D. J. D. Wilson, M. Ziolkowski
       and H. Agren,
       "The Dalton quantum chemistry program system",
       WIREs Comput. Mol. Sci. 2014, 4:269–284 (doi: 10.1002/wcms.1172)
     
    and
     
       Dalton, a Molecular Electronic Structure Program,
       Release Dalton2016.1 (2016), see http://daltonprogram.org
   ----------------------------------------------------------------------------

    Authors in alphabetical order (major contribution(s) in parenthesis):

  Kestutis Aidas,           Vilnius University,           Lithuania   (QM/MM)
  Celestino Angeli,         University of Ferrara,        Italy       (NEVPT2)
  Keld L. Bak,              UNI-C,                        Denmark     (AOSOPPA, non-adiabatic coupling, magnetic properties)
  Vebjoern Bakken,          University of Oslo,           Norway      (DALTON; geometry optimizer, symmetry detection)
  Radovan Bast,             UiT The Arctic U. of Norway,  Norway      (DALTON installation and execution frameworks)
  Pablo Baudin,             University of Valencia,       Spain       (Cholesky excitation energies)
  Linus Boman,              NTNU,                         Norway      (Cholesky decomposition and subsystems)
  Ove Christiansen,         Aarhus University,            Denmark     (CC module)
  Renzo Cimiraglia,         University of Ferrara,        Italy       (NEVPT2)
  Sonia Coriani,            University of Trieste,        Italy       (CC module, MCD in RESPONS)
  Janusz Cukras,            University of Trieste,        Italy       (MChD in RESPONS)
  Paal Dahle,               University of Oslo,           Norway      (Parallelization)
  Erik K. Dalskov,          UNI-C,                        Denmark     (SOPPA)
  Thomas Enevoldsen,        Univ. of Southern Denmark,    Denmark     (SOPPA)
  Janus J. Eriksen,         Aarhus University,            Denmark     (Polarizable embedding model, TDA)
  Rasmus Faber,             University of Copenhagen,     Denmark     (Vib.avg. NMR with SOPPA, parallel AO-SOPPA)
  Berta Fernandez,          U. of Santiago de Compostela, Spain       (doublet spin, ESR in RESPONS)
  Lara Ferrighi,            Aarhus University,            Denmark     (PCM Cubic response)
  Heike Fliegl,             University of Oslo,           Norway      (CCSD(R12))
  Luca Frediani,            UiT The Arctic U. of Norway,  Norway      (PCM)
  Bin Gao,                  UiT The Arctic U. of Norway,  Norway      (Gen1Int library)
  Christof Haettig,         Ruhr-University Bochum,       Germany     (CC module)
  Kasper Hald,              Aarhus University,            Denmark     (CC module)
  Asger Halkier,            Aarhus University,            Denmark     (CC module)
  Frederik Beyer Hansen,    University of Copenhagen,     Denmark     (Parallel AO-SOPPA)
  Erik D. Hedegaard,        Univ. of Southern Denmark,    Denmark     (Polarizable embedding model, QM/MM)
  Hanne Heiberg,            University of Oslo,           Norway      (geometry analysis, selected one-electron integrals)
  Trygve Helgaker,          University of Oslo,           Norway      (DALTON; ABACUS, ERI, DFT modules, London, and much more)
  Alf Christian Hennum,     University of Oslo,           Norway      (Parity violation)
  Hinne Hettema,            University of Auckland,       New Zealand (quadratic response in RESPONS; SIRIUS supersymmetry)
  Eirik Hjertenaes,         NTNU,                         Norway      (Cholesky decomposition)
  Maria Francesca Iozzi,    University of Oslo,           Norway      (RPA)
  Brano Jansik              Technical Univ. of Ostrava    Czech Rep.  (DFT cubic response)
  Hans Joergen Aa. Jensen,  Univ. of Southern Denmark,    Denmark     (DALTON; SIRIUS, RESPONS, ABACUS modules, London, and much more)
  Dan Jonsson,              UiT The Arctic U. of Norway,  Norway      (cubic response in RESPONS module)
  Poul Joergensen,          Aarhus University,            Denmark     (RESPONS, ABACUS, and CC modules)
  Maciej Kaminski,          University of Warsaw,         Poland      (CPPh in RESPONS)
  Joanna Kauczor,           Linkoeping University,        Sweden      (Complex polarization propagator (CPP) module)
  Sheela Kirpekar,          Univ. of Southern Denmark,    Denmark     (Mass-velocity & Darwin integrals)
  Wim Klopper,              KIT Karlsruhe,                Germany     (R12 code in CC, SIRIUS, and ABACUS modules)
  Stefan Knecht,            ETH Zurich,                   Switzerland (Parallel CI and MCSCF)
  Rika Kobayashi,           Australian National Univ.,    Australia   (DIIS in CC, London in MCSCF)
  Henrik Koch,              NTNU,                         Norway      (CC module, Cholesky decomposition)
  Jacob Kongsted,           Univ. of Southern Denmark,    Denmark     (Polarizable embedding model, QM/MM)
  Andrea Ligabue,           University of Modena,         Italy       (CTOCD, AOSOPPA)
  Nanna H. List             Univ. of Southern Denmark,    Denmark     (Polarizable embedding model)
  Ola B. Lutnaes,           University of Oslo,           Norway      (DFT Hessian)
  Juan I. Melo,             University of Buenos Aires,   Argentina   (LRESC, Relativistic Effects on NMR Shieldings)
  Kurt V. Mikkelsen,        University of Copenhagen,     Denmark     (MC-SCRF and QM/MM)
  Rolf H. Myhre,            NTNU,                         Norway      (Cholesky, subsystems and ECC2)
  Christian Neiss,          Univ. Erlangen-Nuernberg,     Germany     (CCSD(R12))
  Christian B. Nielsen,     University of Copenhagen,     Denmark     (QM/MM)
  Patrick Norman,           Linkoeping University,        Sweden      (Cubic response and complex frequency response in RESPONS)
  Jeppe Olsen,              Aarhus University,            Denmark     (SIRIUS CI/density modules)
  Jogvan Magnus H. Olsen,   Univ. of Southern Denmark,    Denmark     (Polarizable embedding model, QM/MM)
  Anders Osted,             Copenhagen University,        Denmark     (QM/MM)
  Martin J. Packer,         University of Sheffield,      UK          (SOPPA)
  Filip Pawlowski,          Kazimierz Wielki University,  Poland      (CC3)
  Morten N. Pedersen,       Univ. of Southern Denmark,    Denmark     (Polarizable embedding model)
  Thomas B. Pedersen,       University of Oslo,           Norway      (Cholesky decomposition)
  Patricio F. Provasi,      University of Northeastern,   Argentina   (Analysis of coupling constants in localized orbitals)
  Zilvinas Rinkevicius,     KTH Stockholm,                Sweden      (open-shell DFT, ESR)
  Elias Rudberg,            KTH Stockholm,                Sweden      (DFT grid and basis info)
  Torgeir A. Ruden,         University of Oslo,           Norway      (Numerical derivatives in ABACUS)
  Kenneth Ruud,             UiT The Arctic U. of Norway,  Norway      (DALTON; ABACUS magnetic properties and much more)
  Pawel Salek,              KTH Stockholm,                Sweden      (DALTON; DFT code)
  Claire C. M. Samson       University of Karlsruhe       Germany     (Boys localization, r12 integrals in ERI)
  Alfredo Sanchez de Meras, University of Valencia,       Spain       (CC module, Cholesky decomposition)
  Trond Saue,               Paul Sabatier University,     France      (direct Fock matrix construction)
  Stephan P. A. Sauer,      University of Copenhagen,     Denmark     (SOPPA(CCSD), SOPPA prop., AOSOPPA, vibrational g-factors)
  Bernd Schimmelpfennig,    Forschungszentrum Karlsruhe,  Germany     (AMFI module)
  Kristian Sneskov,         Aarhus University,            Denmark     (Polarizable embedding model, QM/MM)
  Arnfinn H. Steindal,      UiT The Arctic U. of Norway,  Norway      (parallel QM/MM, Polarizable embedding model)
  Casper Steinmann,         Univ. of Southern Denmark,    Denmark     (QFIT, Polarizable embedding model)
  K. O. Sylvester-Hvid,     University of Copenhagen,     Denmark     (MC-SCRF)
  Peter R. Taylor,          VLSCI/Univ. of Melbourne,     Australia   (Symmetry handling ABACUS, integral transformation)
  Andrew M. Teale,          University of Nottingham,     England     (DFT-AC, DFT-D)
  David P. Tew,             University of Bristol,        England     (CCSD(R12))
  Olav Vahtras,             KTH Stockholm,                Sweden      (triplet response, spin-orbit, ESR, TDDFT, open-shell DFT)
  David J. Wilson,          La Trobe University,          Australia   (DFT Hessian and DFT magnetizabilities)
  Hans Agren,               KTH Stockholm,                Sweden      (SIRIUS module, RESPONS, MC-SCRF solvation model)
 --------------------------------------------------------------------------------

     Date and time (Linux)  : Tue Sep 10 08:55:17 2019
     Host name              : node361.cluster                         

 * Work memory size             :  2048000000 = 15.259 gigabytes.

 * Directories for basis set searches:
   1) /groups/kemi/andreasb/DHAVHF_exc/imag_polar/VHF_cis
   2) /lustre/hpc/software/kemi/DALTON2016/build-parallel/basis


Compilation information
-----------------------

 Who compiled             | sauer
 Host                     | fend01.cluster
 System                   | Linux-2.6.32-642.6.2.el6.x86_64
 CMake generator          | Unix Makefiles
 Processor                | x86_64
 64-bit integers          | OFF
 MPI                      | ON
 Fortran compiler         | /software/kemi/openmpi-1.6.5-i4/bin/mpif90
 Fortran compiler version | ifort (IFORT) 13.0.1 20121010
 C compiler               | /software/kemi/openmpi-1.6.5-i4/bin/mpicc
 C compiler version       | icc (ICC) 13.0.1 20121010
 C++ compiler             | /software/kemi/openmpi-1.6.5-i4/bin/mpicxx
 C++ compiler version     | unknown
 BLAS                     | /users/software/kemi/intel/Compiler/composer_xe_20
                          | 13.1.117/mkl/lib/intel64/libmkl_intel_lp64.so;/use
                          | rs/software/kemi/intel/Compiler/composer_xe_2013.1
                          | .117/mkl/lib/intel64/libmkl_sequential.so;/users/s
                          | oftware/kemi/intel/Compiler/composer_xe_2013.1.117
                          | /mkl/lib/intel64/libmkl_core.so;/usr/lib64/libpthr
                          | ead.so;/usr/lib64/libm.so
 LAPACK                   | /users/software/kemi/intel/Compiler/composer_xe_20
                          | 13.1.117/mkl/lib/intel64/libmkl_lapack95_lp64.a;/u
                          | sers/software/kemi/intel/Compiler/composer_xe_2013
                          | .1.117/mkl/lib/intel64/libmkl_intel_lp64.so
 Static linking           | OFF
 Last Git revision        | a10ef0cf7cc62686ecfeaafb7364c9b014fdc003
 Configuration time       | 2017-07-05 12:54:37.340882

 * MPI run using 8 processes.


   Content of the .dal input file
 ----------------------------------

**DALTON                                          
.RUN RESPONSE                                     
.DIRECT                                           
**WAVE FUNCTIONS                                  
.DFT                                              
CAMB3LYP                                          
**RESPONSE                                        
*ABSORPTION                                       
.ALPHA                                            
.DAMPING                                          
 0.0045566                                        
.FREQ INTERVAL                                    
 0.05 0.1 0.001                                   
**END OF                                          


   Content of the .mol file
 ----------------------------

ATOMBASIS                                                                      
VHF_cis.xyz                                                                    
Hej Bendte                                                                     
Atomtypes=3 Charge=0 Nosymmetry Angstrom                                       
  7.0000     3 Bas=aug-cc-pVDZ                                                 
N    1.696670000        2.708780000        1.090420000                         
N   -2.220120000        3.346020000       -0.571560000                         
N   -0.041680000       -1.721880000        1.499350000                         
  6.0000    18 Bas=aug-cc-pVDZ                                                 
C    1.543870000       -0.714820000       -0.016770000                         
C    2.438810000       -1.854750000        0.229980000                         
C    3.783750000       -1.846300000        0.265520000                         
C    4.666290000       -0.718120000        0.047700000                         
C    4.381820000        0.382370000       -0.677110000                         
C    3.142510000        0.674350000       -1.367560000                         
C    1.910020000        0.209320000       -1.090840000                         
C   -0.497630000        1.614540000        0.277920000                         
C   -0.729740000        0.270960000        0.299070000                         
C    0.333820000       -0.695700000        0.610580000                         
C    0.731580000        2.200110000        0.725440000                         
C   -1.469130000        2.561880000       -0.191010000                         
C   -2.075350000       -0.291090000        0.037560000                         
C   -2.183660000       -1.455330000       -0.733010000                         
C   -3.232260000        0.294770000        0.560000000                         
C   -3.429540000       -1.997960000       -1.008780000                         
C   -4.477380000       -0.262370000        0.296140000                         
C   -4.578620000       -1.401910000       -0.494340000                         
  1.0000    13 Bas=aug-cc-pVDZ                                                 
H   -3.160650000        1.176480000        1.186500000                         
H   -5.368290000        0.195080000        0.710120000                         
H    1.940540000       -2.809050000        0.395990000                         
H    4.273260000       -2.788900000        0.496480000                         
H    5.672660000       -0.816210000        0.443500000                         
H    5.176800000        1.108720000       -0.818030000                         
H    3.217970000        1.397780000       -2.174180000                         
H    1.093680000        0.580950000       -1.706670000                         
H   -1.282680000       -1.925460000       -1.112790000                         
H   -3.504410000       -2.890790000       -1.618680000                         
H   -5.551940000       -1.832010000       -0.702250000                         
H   -0.831050000       -1.484710000        2.084890000                         
H    0.725060000       -2.061820000        2.064790000                         


       *******************************************************************
       *********** Output from DALTON general input processing ***********
       *******************************************************************

 --------------------------------------------------------------------------------
   Overall default print level:    0
   Print level for DALTON.STAT:    1

    Parallel calculation using MPI
    AO-direct calculation (in sections where implemented)
    HERMIT 1- and 2-electron integral sections will be executed
    "Old" integral transformation used (limited to max 255 basis functions)
    Wave function sections will be executed (SIRIUS module)
    Dynamic molecular response properties section will be executed (RESPONSE module)
 --------------------------------------------------------------------------------


   ****************************************************************************
   *************** Output of molecule and basis set information ***************
   ****************************************************************************


    The two title cards from your ".mol" input:
    ------------------------------------------------------------------------
 1: VHF_cis.xyz                                                             
 2: Hej Bendte                                                              
    ------------------------------------------------------------------------

  Coordinates are entered in Angstrom and converted to atomic units.
          - Conversion factor : 1 bohr = 0.52917721 A

  Atomic type no.    1
  --------------------
  Nuclear charge:   7.00000
  Number of symmetry independent centers:    3
  Number of basis sets to read;    2
  The basis set is "aug-cc-pVDZ" from the basis set library.
  Basis set file used for this atomic type with Z =   7 :
     "/lustre/hpc/software/kemi/DALTON2016/build-parallel/basis/aug-cc-pVDZ"

  Atomic type no.    2
  --------------------
  Nuclear charge:   6.00000
  Number of symmetry independent centers:   18
  Number of basis sets to read;    2
  The basis set is "aug-cc-pVDZ" from the basis set library.
  Basis set file used for this atomic type with Z =   6 :
     "/lustre/hpc/software/kemi/DALTON2016/build-parallel/basis/aug-cc-pVDZ"

  Atomic type no.    3
  --------------------
  Nuclear charge:   1.00000
  Number of symmetry independent centers:   13
  Number of basis sets to read;    2
  The basis set is "aug-cc-pVDZ" from the basis set library.
  Basis set file used for this atomic type with Z =   1 :
     "/lustre/hpc/software/kemi/DALTON2016/build-parallel/basis/aug-cc-pVDZ"


                         SYMGRP: Point group information
                         -------------------------------

@    Point group: C1 


                                 Isotopic Masses
                                 ---------------

                           N          14.003074
                           N          14.003074
                           N          14.003074
                           C          12.000000
                           C          12.000000
                           C          12.000000
                           C          12.000000
                           C          12.000000
                           C          12.000000
                           C          12.000000
                           C          12.000000
                           C          12.000000
                           C          12.000000
                           C          12.000000
                           C          12.000000
                           C          12.000000
                           C          12.000000
                           C          12.000000
                           C          12.000000
                           C          12.000000
                           C          12.000000
                           H           1.007825
                           H           1.007825
                           H           1.007825
                           H           1.007825
                           H           1.007825
                           H           1.007825
                           H           1.007825
                           H           1.007825
                           H           1.007825
                           H           1.007825
                           H           1.007825
                           H           1.007825
                           H           1.007825

                       Total mass:   271.110947 amu
                       Natural abundance:  80.883 %

 Center-of-mass coordinates (a.u.):   -0.016617    0.084122    0.005233


  Atoms and basis sets
  --------------------

  Number of atom types :    3
  Total number of atoms:   34

  label    atoms   charge   prim   cont     basis
  ----------------------------------------------------------------------
  N           3    7.0000    35    23      [10s5p2d|4s3p2d]                                   
  C          18    6.0000    35    23      [10s5p2d|4s3p2d]                                   
  H          13    1.0000    11     9      [5s2p|3s2p]                                        
  ----------------------------------------------------------------------
  total:     34  142.0000   878   600
  ----------------------------------------------------------------------
  Spherical harmonic basis used.

  Threshold for neglecting AO integrals:  1.00D-12

  Max    interatomic separation is   11.3286 Angstrom (   21.4079 Bohr)
  between atoms   32 and   26, "H     " and "H     ".

  Min HX interatomic separation is    1.0110 Angstrom (    1.9106 Bohr)

  Min YX interatomic separation is    1.1504 Angstrom (    2.1739 Bohr)


  Bond distances (Angstrom):
  --------------------------

                  atom 1     atom 2       distance
                  ------     ------       --------
  bond distance:  C          C            1.470117
  bond distance:  C          C            1.345436
  bond distance:  C          C            1.448831
  bond distance:  C          C            1.348092
  bond distance:  C          C            1.448400
  bond distance:  C          C            1.463464
  bond distance:  C          C            1.346053
  bond distance:  C          C            1.363646
  bond distance:  C          N            1.408530
  bond distance:  C          C            1.363141
  bond distance:  C          C            1.470588
  bond distance:  C          N            1.150371
  bond distance:  C          C            1.433221
  bond distance:  C          N            1.150513
  bond distance:  C          C            1.435674
  bond distance:  C          C            1.481538
  bond distance:  C          C            1.400344
  bond distance:  C          C            1.398076
  bond distance:  C          C            1.386619
  bond distance:  C          C            1.389371
  bond distance:  C          C            1.392950
  bond distance:  C          C            1.390561
  bond distance:  H          C            1.083994
  bond distance:  H          C            1.083679
  bond distance:  H          C            1.089275
  bond distance:  H          C            1.086949
  bond distance:  H          C            1.085845
  bond distance:  H          C            1.086018
  bond distance:  H          C            1.086131
  bond distance:  H          C            1.088010
  bond distance:  H          C            1.084906
  bond distance:  H          C            1.083849
  bond distance:  H          C            1.084234
  bond distance:  H          N            1.011045
  bond distance:  H          N            1.011520


  Bond angles (degrees):
  ----------------------

                  atom 1     atom 2     atom 3         angle
                  ------     ------     ------         -----
  bond angle:     C          N          H            113.745
  bond angle:     C          N          H            113.296
  bond angle:     H          N          H            110.298
  bond angle:     C          C          C            117.421
  bond angle:     C          C          C            118.295
  bond angle:     C          C          C            123.436
  bond angle:     C          C          C            127.452
  bond angle:     C          C          H            115.242
  bond angle:     C          C          H            117.306
  bond angle:     C          C          C            127.577
  bond angle:     C          C          H            116.766
  bond angle:     C          C          H            115.651
  bond angle:     C          C          C            126.012
  bond angle:     C          C          H            116.066
  bond angle:     C          C          H            117.729
  bond angle:     C          C          C            126.971
  bond angle:     C          C          H            117.470
  bond angle:     C          C          H            115.446
  bond angle:     C          C          C            128.011
  bond angle:     C          C          H            115.394
  bond angle:     C          C          H            116.513
  bond angle:     C          C          C            126.736
  bond angle:     C          C          H            116.320
  bond angle:     C          C          H            116.913
  bond angle:     C          C          C            122.936
  bond angle:     C          C          C            122.686
  bond angle:     C          C          C            114.378
  bond angle:     C          C          C            121.860
  bond angle:     C          C          C            121.712
  bond angle:     C          C          C            116.416
  bond angle:     N          C          C            121.120
  bond angle:     N          C          C            114.819
  bond angle:     C          C          C            123.623
  bond angle:     N          C          C            177.777
  bond angle:     N          C          C            178.133
  bond angle:     C          C          C            118.867
  bond angle:     C          C          C            121.779
  bond angle:     C          C          C            119.342
  bond angle:     C          C          C            120.284
  bond angle:     C          C          H            119.253
  bond angle:     C          C          H            120.463
  bond angle:     C          C          C            120.171
  bond angle:     C          C          H            120.143
  bond angle:     C          C          H            119.679
  bond angle:     C          C          C            120.019
  bond angle:     C          C          H            119.758
  bond angle:     C          C          H            120.220
  bond angle:     C          C          C            120.120
  bond angle:     C          C          H            119.666
  bond angle:     C          C          H            120.214
  bond angle:     C          C          C            120.036
  bond angle:     C          C          H            119.998
  bond angle:     C          C          H            119.963




 Principal moments of inertia (u*A**2) and principal axes
 --------------------------------------------------------

   IA     880.858231          0.999987   -0.004601    0.002264
   IB    2284.407880          0.004578    0.999942    0.009710
   IC    2845.278345         -0.002308   -0.009699    0.999950


 Rotational constants
 --------------------

               A                   B                   C

            573.7348            221.2298            177.6202 MHz
            0.019138            0.007379            0.005925 cm-1


@  Nuclear repulsion energy : 1478.005974753474 Hartree


                     .---------------------------------------.
                     | Starting in Integral Section (HERMIT) |
                     `---------------------------------------'



 ***************************************************************************************
 ****************** Output from **INTEGRALS input processing (HERMIT) ******************
 ***************************************************************************************


 - Using defaults, no **INTEGRALS input found

 Default print level:        1

 * Nuclear model: Point charge

 Calculation of one-electron Hamiltonian integrals.

 Center of mass  (bohr):     -0.016616509719      0.084121732179      0.005233463214
 Operator center (bohr):      0.000000000000      0.000000000000      0.000000000000
 Gauge origin    (bohr):      0.000000000000      0.000000000000      0.000000000000
 Dipole origin   (bohr):      0.000000000000      0.000000000000      0.000000000000


     ************************************************************************
     ************************** Output from HERINT **************************
     ************************************************************************

  Time used in ONEDRV     is       1.80 seconds
  Time used in HUCKEL     is       0.62 seconds
  Time used in OVERLAP    is       0.25 seconds
  Time used in POPOVLP    is       0.49 seconds
  Time used in DIPLEN     is       0.29 seconds
  Time used in QUADRUP    is       0.77 seconds
  Time used in KINENE     is       0.64 seconds
  Time used in GABGEN     is       2.87 seconds
  Total CPU  time used in HERMIT:   7.75 seconds
  Total wall time used in HERMIT:   8.19 seconds


                        .----------------------------------.
                        | End of Integral Section (HERMIT) |
                        `----------------------------------'



                   .--------------------------------------------.
                   | Starting in Wave Function Section (SIRIUS) |
                   `--------------------------------------------'



@ Primary orbitals are deleted during canonical orthonormalization
@   because of detected numerical linear dependence or too large coefficients.
@ Eigenvalue threshold for num. lin. dep. =  1.00D-06

@   1 MO components are deleted in symmetry    1
 Overlap eigenvalues of the deleted orbitals:
  8.89D-07

 Max MO coeff. of last deleted MO & limit:  5.75D+02  1.00D+03

WARNING: Orbitals have been deleted because of numerical
   linear dependence although not requested in input.

 *** Output from Huckel module :

     Using EWMO model:          T
     Using EHT  model:          F
     Number of Huckel orbitals each symmetry:  118

 EWMO - Energy Weighted Maximum Overlap - is a Huckel type method,
        which normally is better than Extended Huckel Theory.
 Reference: Linderberg and Ohrn, Propagators in Quantum Chemistry (Wiley, 1973)

 Huckel EWMO eigenvalues for symmetry :  1
          -15.674698     -15.673808     -15.673447     -11.366651     -11.364953
          -11.362498     -11.358400     -11.356307     -11.355852     -11.354533
          -11.353648     -11.352450     -11.351126     -11.348664     -11.348139
          -11.347525     -11.347182     -11.345364     -11.344631     -11.344407
          -11.344034      -2.074606      -1.959685      -1.816598      -1.740419
           -1.569637      -1.504374      -1.447267      -1.440515      -1.384521
           -1.279346      -1.164353      -1.113958      -1.047756      -1.018708
           -0.960601      -0.949384      -0.923783      -0.873168      -0.805450
           -0.787944      -0.761095      -0.723908      -0.709572      -0.698422
           -0.659365      -0.653717      -0.639205      -0.618820      -0.611218
           -0.598572      -0.588337      -0.569857      -0.544288      -0.541041
           -0.525804      -0.508052      -0.496825      -0.491467      -0.484235
           -0.469612      -0.458975      -0.448738      -0.441225      -0.431147
           -0.419110      -0.405634      -0.399198      -0.391386      -0.364403
           -0.349324      -0.292004      -0.277387      -0.264858      -0.253614
           -0.247698      -0.244352      -0.233347      -0.228269      -0.196982
           -0.195584      -0.185510      -0.177952      -0.168758      -0.145651
           -0.144891      -0.138761      -0.137614      -0.131509      -0.129730
           -0.127356      -0.125503      -0.124732      -0.121981      -0.120809
           -0.120647      -0.120198      -0.119293      -0.116298      -0.113337
           -0.110223      -0.104192      -0.102227      -0.098255      -0.097130
           -0.096052      -0.094656      -0.093417      -0.092987      -0.090267
           -0.085158      -0.084792      -0.080788      -0.078678      -0.078206
           -0.077375      -0.074423      -0.073811

 **********************************************************************
 *SIRIUS* a direct, restricted step, second order MCSCF program       *
 **********************************************************************

 
     Date and time (Linux)  : Tue Sep 10 08:56:03 2019
     Host name              : node361.cluster                         

 Title lines from ".mol" input file:
     VHF_cis.xyz                                                             
     Hej Bendte                                                              

 Print level on unit LUPRI =   2 is   0
 Print level on unit LUW4  =   2 is   5

@    Restricted, closed shell Kohn-Sham DFT calculation.

@    Time-dependent Kohn-Sham DFT calculation (TD-DFT).
 Fock matrices are calculated directly and in parallel without use of integrals on disk.

 Initial molecular orbitals are obtained according to
 ".MOSTART EWMO  " input option

     Wave function specification
     ============================
@    Wave function type        --- KS-DFT ---
@    Number of closed shell electrons         142
@    Number of electrons in active shells       0
@    Total charge of the molecule               0

@    Spin multiplicity and 2 M_S                1         0
@    Total number of symmetries                 1 (point group: C1 )
@    Reference state symmetry                   1 (irrep name : A  )
 
     This is a DFT calculation of type: Camb3lyp
 CAM-B3LYP w/ alpha=0.190 beta=0.460 mu=0.330 VwnWeight=0.190 LypWeight=0.810

     Orbital specifications
     ======================
@    Abelian symmetry species          All |    1
@                                          |  A  
                                       --- |  ---
@    Occupied SCF orbitals              71 |   71
@    Secondary orbitals                528 |  528
@    Total number of orbitals          599 |  599
@    Number of basis functions         600 |  600

     Optimization information
     ========================
@    Number of configurations                 1
@    Number of orbital rotations          37488
     ------------------------------------------
@    Total number of variables            37489

     Maximum number of Fock   iterations      0
     Maximum number of DIIS   iterations     60
     Maximum number of QC-SCF iterations     60
     Threshold for SCF convergence     1.00D-05
 
     This is a DFT calculation of type: Camb3lyp
 CAM-B3LYP w/ alpha=0.190 beta=0.460 mu=0.330 VwnWeight=0.190 LypWeight=0.810

    INFORMATION: Switched to "new" integral transformation (from 1988 ;-) )
    because more than 255 basis functions.


 ***********************************************
 ***** DIIS acceleration of SCF iterations *****
 ***********************************************

 C1-DIIS algorithm; max error vectors =    8

 Iter      Total energy        Error norm    Delta(E)  DIIS dim.
 -----------------------------------------------------------------------------
   1  Screening settings (-IFTHRS, JTDIIS, DIFDEN, times)   -9    1    F  1.11D+03  1.11D+03
      K-S energy, electrons, error :    -87.128925811852 141.9997271183   -2.73D-04
@  1    -854.278957562        6.95580D+00   -8.54D+02    1
      Virial theorem: -V/T =      2.017001
@      MULPOP N      -1.38; N      -1.36; N      -0.43; C      -0.19; C       0.47; C       0.18; C       0.16; C       0.16; C       0.17; C       0.23; 
@             C      -0.98; C       0.86; C       0.51; C       1.44; C       1.42; C       0.21; C       0.10; C       0.20; C       0.18; C       0.18; 
@             C       0.18; H      -0.25; H      -0.20; H      -0.22; H      -0.21; H      -0.21; H      -0.21; H      -0.22; H      -0.25; H      -0.29; 
   1  Level shift: doubly occupied orbital energies shifted by -2.00D-01
 -----------------------------------------------------------------------------
   2  Screening settings (-IFTHRS, JTDIIS, DIFDEN, times)   -9    2    F  1.11D+03  1.11D+03
      K-S energy, electrons, error :    -89.873732471165 141.9998481805   -1.52D-04
@  2    -855.645723427        5.64626D+00   -1.37D+00    2
      Virial theorem: -V/T =      1.997392
@      MULPOP N       1.43; N       1.45; N       0.33; C       1.16; C       0.85; C       0.72; C       0.46; C       0.69; C       0.59; C       1.28; 
@             C       1.54; C       0.90; C      -0.83; C      -2.49; C      -2.84; C       1.10; C       1.15; C       1.17; C      -0.27; C      -0.07; 
@             C       0.72; H      -0.95; H      -0.72; H      -0.84; H      -0.76; H      -0.72; H      -0.77; H      -0.79; H      -0.98; H      -0.99; 
   2  Level shift: doubly occupied orbital energies shifted by -2.00D-01
 -----------------------------------------------------------------------------
   3  Screening settings (-IFTHRS, JTDIIS, DIFDEN, times)   -9    3    F  1.11D+03  1.11D+03
      K-S energy, electrons, error :    -89.748024282478 141.9998594646   -1.41D-04
@  3    -857.343400381        1.69231D+00   -1.70D+00    3
      Virial theorem: -V/T =      2.001047
@      MULPOP N      -0.47; N      -0.38; N       0.11; C       1.24; C       0.90; C       0.70; C       0.45; C       0.73; C       0.42; C       1.70; 
@             C       1.79; C       0.96; C      -0.87; C      -0.60; C      -1.02; C       1.28; C       1.11; C       1.17; C      -0.22; C      -0.05; 
@             C       0.76; H      -1.03; H      -0.78; H      -0.93; H      -0.82; H      -0.77; H      -0.81; H      -0.86; H      -1.02; H      -1.06; 
   3  Level shift: doubly occupied orbital energies shifted by -1.00D-01
 -----------------------------------------------------------------------------
   4  Screening settings (-IFTHRS, JTDIIS, DIFDEN, times)  -10    4    F  1.12D+03  1.12D+03
      K-S energy, electrons, error :    -89.181983982416 141.9998524203   -1.48D-04
@  4    -857.490902255        4.28946D-01   -1.48D-01    4
      Virial theorem: -V/T =      2.006502
@      MULPOP N      -0.18; N      -0.12; N       0.12; C       1.27; C       0.97; C       0.76; C       0.51; C       0.80; C       0.54; C       1.63; 
@             C       1.78; C       1.07; C      -0.81; C      -1.00; C      -1.38; C       1.15; C       1.07; C       1.17; C      -0.06; C       0.11; 
@             C       0.88; H      -1.07; H      -0.83; H      -0.99; H      -0.87; H      -0.82; H      -0.86; H      -0.91; H      -1.06; H      -1.09; 
   4  Level shift: doubly occupied orbital energies shifted by -5.00D-02
 -----------------------------------------------------------------------------
   5  Screening settings (-IFTHRS, JTDIIS, DIFDEN, times)  -10    5    F  1.12D+03  1.12D+03
      K-S energy, electrons, error :    -89.281270836554 141.9998538550   -1.46D-04
@  5    -857.503412881        1.49540D-01   -1.25D-02    5
      Virial theorem: -V/T =      2.005591
@      MULPOP N      -0.19; N      -0.12; N       0.14; C       1.28; C       0.93; C       0.79; C       0.50; C       0.80; C       0.54; C       1.65; 
@             C       1.94; C       0.89; C      -0.86; C      -0.97; C      -1.37; C       1.20; C       1.06; C       1.19; C      -0.10; C       0.09; 
@             C       0.86; H      -1.07; H      -0.82; H      -0.98; H      -0.87; H      -0.82; H      -0.86; H      -0.90; H      -1.05; H      -1.08; 
   5  Level shift: doubly occupied orbital energies shifted by -2.50D-02
 -----------------------------------------------------------------------------
   6  Screening settings (-IFTHRS, JTDIIS, DIFDEN, times)  -11    6    F  1.12D+03  1.12D+03
      K-S energy, electrons, error :    -89.293917062514 141.9998542515   -1.46D-04
@  6    -857.504891872        6.78920D-02   -1.48D-03    6
      Virial theorem: -V/T =      2.005471
@      MULPOP N      -0.17; N      -0.11; N       0.11; C       1.34; C       0.94; C       0.76; C       0.50; C       0.79; C       0.52; C       1.65; 
@             C       1.88; C       0.98; C      -0.87; C      -1.02; C      -1.40; C       1.24; C       1.06; C       1.17; C      -0.11; C       0.09; 
@             C       0.86; H      -1.07; H      -0.82; H      -0.98; H      -0.87; H      -0.81; H      -0.85; H      -0.90; H      -1.06; H      -1.08; 
   6  Level shift: doubly occupied orbital energies shifted by -1.25D-02
 -----------------------------------------------------------------------------
   7  Screening settings (-IFTHRS, JTDIIS, DIFDEN, times)  -11    7    F  1.12D+03  1.12D+03
      K-S energy, electrons, error :    -89.290222636683 141.9998543483   -1.46D-04
@  7    -857.505215598        2.35487D-02   -3.24D-04    7
      Virial theorem: -V/T =      2.005507
@      MULPOP N      -0.17; N      -0.11; N       0.11; C       1.32; C       0.92; C       0.78; C       0.50; C       0.80; C       0.54; C       1.64; 
@             C       1.91; C       0.94; C      -0.86; C      -1.00; C      -1.40; C       1.23; C       1.05; C       1.17; C      -0.10; C       0.10; 
@             C       0.86; H      -1.07; H      -0.82; H      -0.98; H      -0.87; H      -0.81; H      -0.85; H      -0.90; H      -1.05; H      -1.08; 
 -----------------------------------------------------------------------------
   8  Screening settings (-IFTHRS, JTDIIS, DIFDEN, times)  -12    8    F  1.12D+03  1.12D+03
      K-S energy, electrons, error :    -89.289740572392 141.9998543620   -1.46D-04
@  8    -857.505264676        8.44933D-03   -4.91D-05    8
      Virial theorem: -V/T =      2.005514
@      MULPOP N      -0.17; N      -0.11; N       0.11; C       1.31; C       0.92; C       0.77; C       0.50; C       0.80; C       0.53; C       1.65; 
@             C       1.90; C       0.94; C      -0.85; C      -1.00; C      -1.39; C       1.24; C       1.05; C       1.17; C      -0.10; C       0.10; 
@             C       0.86; H      -1.07; H      -0.82; H      -0.98; H      -0.87; H      -0.81; H      -0.85; H      -0.90; H      -1.05; H      -1.08; 
 -----------------------------------------------------------------------------
   9  Screening settings (-IFTHRS, JTDIIS, DIFDEN, times)  -12    9    F  1.13D+03  1.13D+03
      K-S energy, electrons, error :    -89.290505175244 141.9998543229   -1.46D-04
@  9    -857.505271637        3.24703D-03   -6.96D-06    8
      Virial theorem: -V/T =      2.005507
@      MULPOP N      -0.18; N      -0.11; N       0.11; C       1.32; C       0.92; C       0.78; C       0.50; C       0.80; C       0.53; C       1.64; 
@             C       1.90; C       0.94; C      -0.86; C      -1.00; C      -1.39; C       1.24; C       1.04; C       1.16; C      -0.10; C       0.10; 
@             C       0.86; H      -1.07; H      -0.82; H      -0.98; H      -0.87; H      -0.81; H      -0.85; H      -0.90; H      -1.05; H      -1.08; 
 -----------------------------------------------------------------------------
  10  Screening settings (-IFTHRS, JTDIIS, DIFDEN, times)  -13   10    F  1.13D+03  1.13D+03
      K-S energy, electrons, error :    -89.290381621104 141.9998543138   -1.46D-04
@ 10    -857.505273151        1.73450D-03   -1.51D-06    8
      Virial theorem: -V/T =      2.005508
@      MULPOP N      -0.17; N      -0.11; N       0.11; C       1.32; C       0.92; C       0.78; C       0.50; C       0.80; C       0.53; C       1.65; 
@             C       1.90; C       0.94; C      -0.85; C      -1.00; C      -1.39; C       1.24; C       1.04; C       1.16; C      -0.10; C       0.10; 
@             C       0.86; H      -1.07; H      -0.82; H      -0.98; H      -0.87; H      -0.81; H      -0.85; H      -0.90; H      -1.05; H      -1.08; 
 -----------------------------------------------------------------------------
  11  Screening settings (-IFTHRS, JTDIIS, DIFDEN, times)  -13   11    F  1.12D+03  1.12D+03
      K-S energy, electrons, error :    -89.290433203559 141.9998543226   -1.46D-04
@ 11    -857.505273465        7.31731D-04   -3.13D-07    8
      Virial theorem: -V/T =      2.005507
@      MULPOP N      -0.17; N      -0.11; N       0.11; C       1.32; C       0.92; C       0.77; C       0.50; C       0.80; C       0.53; C       1.65; 
@             C       1.90; C       0.94; C      -0.85; C      -1.00; C      -1.39; C       1.24; C       1.04; C       1.16; C      -0.10; C       0.10; 
@             C       0.86; H      -1.07; H      -0.82; H      -0.98; H      -0.87; H      -0.81; H      -0.85; H      -0.90; H      -1.06; H      -1.08; 
 -----------------------------------------------------------------------------
  12  Screening settings (-IFTHRS, JTDIIS, DIFDEN, times)  -13   12    F  1.13D+03  1.13D+03
      K-S energy, electrons, error :    -89.290430685777 141.9998543213   -1.46D-04
@ 12    -857.505273578        3.24506D-04   -1.13D-07    8
      Virial theorem: -V/T =      2.005507
@      MULPOP N      -0.17; N      -0.11; N       0.11; C       1.32; C       0.92; C       0.78; C       0.50; C       0.80; C       0.53; C       1.65; 
@             C       1.90; C       0.94; C      -0.85; C      -1.00; C      -1.39; C       1.24; C       1.04; C       1.16; C      -0.10; C       0.10; 
@             C       0.86; H      -1.07; H      -0.82; H      -0.98; H      -0.87; H      -0.81; H      -0.85; H      -0.90; H      -1.06; H      -1.08; 
 -----------------------------------------------------------------------------
  13  Screening settings (-IFTHRS, JTDIIS, DIFDEN, times)  -13   13    F  1.13D+03  1.13D+03
      K-S energy, electrons, error :    -89.290384254224 141.9998543191   -1.46D-04
@ 13    -857.505273595        1.54085D-04   -1.74D-08    8
      Virial theorem: -V/T =      2.005508
@      MULPOP N      -0.17; N      -0.11; N       0.11; C       1.32; C       0.92; C       0.78; C       0.50; C       0.80; C       0.53; C       1.65; 
@             C       1.90; C       0.94; C      -0.85; C      -1.00; C      -1.39; C       1.24; C       1.04; C       1.16; C      -0.10; C       0.10; 
@             C       0.86; H      -1.07; H      -0.82; H      -0.98; H      -0.87; H      -0.81; H      -0.85; H      -0.90; H      -1.06; H      -1.08; 
 -----------------------------------------------------------------------------
  14  Screening settings (-IFTHRS, JTDIIS, DIFDEN, times)  -13   14    F  1.13D+03  1.13D+03
      K-S energy, electrons, error :    -89.290411988396 141.9998543195   -1.46D-04
@ 14    -857.505273597        7.81508D-05   -2.47D-09    8
      Virial theorem: -V/T =      2.005507
@      MULPOP N      -0.17; N      -0.11; N       0.11; C       1.32; C       0.92; C       0.78; C       0.50; C       0.80; C       0.53; C       1.65; 
@             C       1.90; C       0.94; C      -0.85; C      -1.00; C      -1.39; C       1.24; C       1.04; C       1.16; C      -0.10; C       0.10; 
@             C       0.86; H      -1.07; H      -0.82; H      -0.98; H      -0.87; H      -0.81; H      -0.85; H      -0.90; H      -1.06; H      -1.08; 
 -----------------------------------------------------------------------------
  15  Screening settings (-IFTHRS, JTDIIS, DIFDEN, times)  -13   15    F  1.13D+03  1.13D+03
      K-S energy, electrons, error :    -89.290415534893 141.9998543196   -1.46D-04
@ 15    -857.505273598        3.36800D-05   -7.76D-10    8
      Virial theorem: -V/T =      2.005507
@      MULPOP N      -0.17; N      -0.11; N       0.11; C       1.32; C       0.92; C       0.78; C       0.50; C       0.80; C       0.53; C       1.65; 
@             C       1.90; C       0.94; C      -0.85; C      -1.00; C      -1.39; C       1.24; C       1.04; C       1.16; C      -0.10; C       0.10; 
@             C       0.86; H      -1.07; H      -0.82; H      -0.98; H      -0.87; H      -0.81; H      -0.85; H      -0.90; H      -1.06; H      -1.08; 
 -----------------------------------------------------------------------------
  16  Screening settings (-IFTHRS, JTDIIS, DIFDEN, times)  -13   16    F  1.13D+03  1.13D+03
      K-S energy, electrons, error :    -89.290411907529 141.9998543194   -1.46D-04
@ 16    -857.505273598        1.65449D-05   -1.13D-10    8
      Virial theorem: -V/T =      2.005507
@      MULPOP N      -0.17; N      -0.11; N       0.11; C       1.32; C       0.92; C       0.78; C       0.50; C       0.80; C       0.53; C       1.65; 
@             C       1.90; C       0.94; C      -0.85; C      -1.00; C      -1.39; C       1.24; C       1.04; C       1.16; C      -0.10; C       0.10; 
@             C       0.86; H      -1.07; H      -0.82; H      -0.98; H      -0.87; H      -0.81; H      -0.85; H      -0.90; H      -1.06; H      -1.08; 
 -----------------------------------------------------------------------------
  17  Screening settings (-IFTHRS, JTDIIS, DIFDEN, times)  -13   17    F  1.13D+03  1.13D+03
      K-S energy, electrons, error :    -89.290411384899 141.9998543194   -1.46D-04
@ 17    -857.505273598        7.29770D-06   -2.59D-11    8

@ *** DIIS converged in  17 iterations !
@     Converged SCF energy, gradient:   -857.505273598325    7.30D-06
    - total time used in SIRFCK :              0.00 seconds


 *** SCF orbital energy analysis ***

 Only the 20 lowest virtual orbital energies printed in each symmetry.

 Number of electrons :  142
 Orbital occupations :   71

 Sym       Kohn-Sham orbital energies

1 A     -14.43075068   -14.42205317   -14.41938738   -10.34776478   -10.33886279
        -10.32194244   -10.31802730   -10.31473973   -10.30055179   -10.29058209
        -10.28932899   -10.28826817   -10.28757946   -10.28431256   -10.28400969
        -10.28374679   -10.28306527   -10.28202505   -10.27768131   -10.27612123
        -10.27491831    -1.03612132    -1.01585399    -1.00243271    -0.97638772
         -0.94515970    -0.93770030    -0.88039714    -0.87061014    -0.86523966
         -0.85559213    -0.81248747    -0.77007889    -0.73522437    -0.71657198
         -0.70499678    -0.67688421    -0.66822672    -0.63781594    -0.61757828
         -0.60960028    -0.60776297    -0.57373612    -0.56449486    -0.55350031
         -0.53839175    -0.53236538    -0.52440273    -0.51803669    -0.51173786
         -0.49849815    -0.48932327    -0.46873990    -0.46100705    -0.45861231
         -0.45191051    -0.44638409    -0.44014308    -0.43891568    -0.43300197
         -0.42381576    -0.42323447    -0.41279561    -0.40709862    -0.40594787
         -0.36741184    -0.34590357    -0.34112918    -0.33253934    -0.31537570
         -0.25048688    -0.06380772    -0.02371021    -0.00348604    -0.00018622
          0.00759129     0.01090804     0.01548120     0.02012951     0.02313367
          0.03000516     0.03698264     0.03901503     0.04050262     0.04654266
          0.04801951     0.04925418     0.05529142     0.05849249     0.06375372
          0.07098496

    E(LUMO) :    -0.06380772 au (symmetry 1)
  - E(HOMO) :    -0.25048688 au (symmetry 1)
  ------------------------------------------
    gap     :     0.18667916 au

 --- Writing SIRIFC interface file

 CPU and wall time for SCF :   19536.483   19538.086


                       .-----------------------------------.
                       | --- Final results from SIRIUS --- |
                       `-----------------------------------'


@    Spin multiplicity:           1
@    Spatial symmetry:            1 ( irrep  A   in C1  )
@    Total charge of molecule:    0

@    Final DFT energy:           -857.505273598325                 
@    Nuclear repulsion:          1478.005974753474
@    Electronic energy:         -2335.511248351799

@    Final gradient norm:           0.000007297700

 
     Date and time (Linux)  : Tue Sep 10 14:21:42 2019
     Host name              : node361.cluster                         

File label for MO orbitals:  10Sep19   FOCKDIIS

 (Only coefficients > 0.0100 are printed.)

 Molecular orbitals for symmetry species 1  (A  )
 ------------------------------------------------

    Orbital        62       63       64       65       66       67       68
   2 N   :1s    -0.0467   0.0481  -0.0027   0.0332  -0.0014  -0.0275   0.0071
   3 N   :1s    -0.0357   0.0389  -0.0341   0.0187   0.0117   0.0024  -0.0224
   4 N   :1s    -0.1312   0.1274  -0.0891   0.0403   0.0190   0.0097  -0.0282
   5 N   :2px   -0.2200   0.0771   0.1547   0.1352  -0.0608  -0.0636   0.0769
   6 N   :2py    0.2592   0.1854  -0.4318  -0.0410  -0.0175   0.0501  -0.0851
   7 N   :2pz   -0.1741  -0.1149   0.0739  -0.0983   0.2382   0.0493  -0.1177
   8 N   :2px    0.0492  -0.0332  -0.0138  -0.0222   0.0046   0.0085  -0.0032
   9 N   :2py   -0.0243  -0.0293   0.0625  -0.0006  -0.0013  -0.0069   0.0155
  10 N   :2pz    0.0260   0.0078  -0.0021   0.0124  -0.0298  -0.0087   0.0177
  11 N   :2px    0.0144  -0.0339   0.0062  -0.0104  -0.0105  -0.0053   0.0080
  12 N   :2py    0.0271  -0.0091   0.0058  -0.0030  -0.0041  -0.0023   0.0001
  13 N   :2pz    0.0026  -0.0143   0.0090  -0.0039   0.0110  -0.0005  -0.0073
  14 N   :3d2-  -0.0069  -0.0077   0.0133  -0.0004   0.0017  -0.0013   0.0019
  18 N   :3d2+   0.0130   0.0021  -0.0153  -0.0058   0.0014   0.0035  -0.0039
  25 N   :1s    -0.0438  -0.0083   0.0279  -0.0032  -0.0009  -0.0001   0.0057
  26 N   :1s    -0.0388  -0.0155   0.0345  -0.0032   0.0093   0.0015  -0.0063
  27 N   :1s    -0.1972  -0.0228   0.1242  -0.0338   0.0359   0.0184  -0.0128
  28 N   :2px    0.2329  -0.3249   0.0797  -0.0069  -0.0573   0.0082   0.0123
  29 N   :2py    0.1479  -0.3119   0.2539  -0.0081   0.0640  -0.0084  -0.0287
  30 N   :2pz    0.1564   0.0675   0.0963   0.0409   0.2395  -0.0354  -0.0569
  31 N   :2px   -0.0410   0.0325   0.0060  -0.0014   0.0053  -0.0002  -0.0022
  32 N   :2py   -0.0007   0.0372  -0.0439   0.0018  -0.0070   0.0013   0.0051
  33 N   :2pz   -0.0255  -0.0117  -0.0052  -0.0030  -0.0307   0.0030   0.0087
  34 N   :2px   -0.0334  -0.0168   0.0150  -0.0088  -0.0012   0.0053  -0.0029
  35 N   :2py    0.0325  -0.0039  -0.0200   0.0061  -0.0041  -0.0026   0.0025
  36 N   :2pz   -0.0098  -0.0042   0.0123   0.0008   0.0171  -0.0054  -0.0036
  41 N   :3d2+   0.0118  -0.0198   0.0108  -0.0003   0.0007  -0.0001  -0.0007
  48 N   :1s    -0.0184  -0.0409   0.0085  -0.0655  -0.0182   0.0009  -0.0791
  49 N   :1s     0.0339  -0.0274  -0.0019  -0.0092   0.0046   0.0273  -0.0105
  50 N   :1s    -0.0707  -0.0584  -0.0407  -0.0768  -0.0932   0.0109  -0.1791
  51 N   :2px    0.0152   0.0305  -0.0126   0.0469   0.0406   0.0458   0.1051
  52 N   :2py    0.1167   0.0147  -0.0926   0.1960   0.2485   0.0099   0.2186
  53 N   :2pz    0.0556   0.0963   0.0019   0.1399   0.1084   0.0433   0.2046
  54 N   :2px    0.0168  -0.0050  -0.0069   0.0251   0.0002   0.0054   0.0015
  55 N   :2py   -0.0041   0.0140   0.0195   0.0046  -0.0023   0.0080   0.0178
  56 N   :2pz    0.0067  -0.0143  -0.0114  -0.0142  -0.0095  -0.0118  -0.0176
  57 N   :2px   -0.0026  -0.0100  -0.0004   0.0192   0.0109   0.0139   0.0236
  58 N   :2py    0.0271   0.0163  -0.0015   0.0135   0.0278   0.0089   0.0232
  59 N   :2pz    0.0152   0.0059  -0.0059   0.0290   0.0231  -0.0045   0.0469
  71 C   :1s    -0.0157  -0.0144  -0.0329  -0.0397  -0.0302   0.0013  -0.0039
  72 C   :1s    -0.0528   0.0035   0.0266  -0.0364  -0.0319  -0.1104  -0.0414
  73 C   :1s    -0.4397  -0.0545   0.0392  -0.1557   0.0689   0.3525  -0.0924
  74 C   :2px   -0.0103   0.0135   0.0120  -0.1835   0.0686   0.0010  -0.2225
  75 C   :2py   -0.0646  -0.1692  -0.2084   0.0985  -0.0041  -0.1122  -0.1930
  76 C   :2pz    0.0563   0.0832   0.0717   0.0109  -0.0489   0.0210  -0.2587
  77 C   :2px    0.0107   0.0546  -0.0729   0.2049   0.0752   0.0797  -0.0529
  78 C   :2py    0.1621  -0.0371  -0.0306  -0.0547   0.0352   0.0197   0.0770
  79 C   :2pz   -0.1404   0.0162   0.0974  -0.1336  -0.0151  -0.0498   0.0128
  80 C   :2px    0.0667  -0.1470  -0.0224   0.0571   0.0450   0.0471   0.0185
  81 C   :2py    0.0229   0.3188   0.2399   0.0414   0.0201  -0.1381   0.0857
  82 C   :2pz    0.0094  -0.1399  -0.1367  -0.0249  -0.0091   0.1573  -0.0473
  84 C   :3d1-  -0.0001   0.0029   0.0048   0.0064  -0.0010   0.0103   0.0075
  85 C   :3d0    0.0039  -0.0003  -0.0030   0.0042   0.0004  -0.0152   0.0044
  86 C   :3d1+  -0.0012   0.0047   0.0045  -0.0141   0.0004  -0.0010  -0.0059
  88 C   :3d2-  -0.0034   0.1267   0.0615   0.0780   0.0096   0.0003   0.0529
  89 C   :3d1-  -0.0074  -0.0630  -0.0228  -0.0970   0.0136  -0.0133   0.0099
  90 C   :3d0    0.0047   0.0888   0.0644   0.0427   0.0134   0.0034   0.0145
  91 C   :3d1+   0.0025  -0.0647  -0.0407   0.0135  -0.0399   0.0039  -0.0404
  92 C   :3d2+  -0.0028  -0.0299   0.0188  -0.1308  -0.0059  -0.0030   0.0118
  94 C   :1s     0.0282   0.0382   0.0404   0.0163   0.0131   0.0482  -0.0494
  95 C   :1s     0.0885   0.2401   0.2181  -0.0880  -0.0166   0.0538   0.0468
  96 C   :1s     0.3072   0.5710   0.5338  -0.1816  -0.0814   0.0622   0.1760
  97 C   :2px    0.0609   0.0484   0.0532   0.0985  -0.0567   0.0042   0.0381
  98 C   :2py    0.0683   0.1771   0.1952  -0.2208  -0.0157   0.0247  -0.0750
  99 C   :2pz   -0.0025  -0.0167  -0.0678  -0.1780   0.0001  -0.4300  -0.1574
 100 C   :2px   -0.0841  -0.0151  -0.0354   0.0497   0.0095   0.0207  -0.1261
 101 C   :2py    0.0094  -0.0110  -0.0498   0.0986   0.0177  -0.0502   0.0834
 102 C   :2pz    0.0030  -0.0129  -0.0017  -0.0437   0.0164   0.0433  -0.0013
 103 C   :2px    0.1174   0.0423   0.0270   0.0187  -0.0142   0.1318   0.0126
 104 C   :2py    0.0013   0.0604   0.0724  -0.1031  -0.0124  -0.0444  -0.0044
 105 C   :2pz    0.0015  -0.0166  -0.0174  -0.0001  -0.0002  -0.0441  -0.0106
 106 C   :3d2-  -0.0051  -0.0112  -0.0121   0.0117   0.0011  -0.0073  -0.0023
 109 C   :3d1+   0.0006   0.0023   0.0011  -0.0131   0.0017  -0.0140   0.0092
 110 C   :3d2+   0.0026   0.0049   0.0065   0.0021  -0.0036   0.0034   0.0118
 111 C   :3d2-   0.0125   0.0632   0.0553  -0.0301  -0.0061   0.0122  -0.0129
 112 C   :3d1-   0.0018  -0.0068  -0.0069  -0.0200   0.0096   0.0121  -0.0106
 113 C   :3d0   -0.0002  -0.0002  -0.0049   0.0124  -0.0048  -0.0104  -0.0000
 114 C   :3d1+   0.0035   0.0087   0.0092  -0.0149  -0.0012   0.0009   0.0015
 115 C   :3d2+  -0.0222  -0.0328  -0.0152  -0.0491   0.0077   0.0290  -0.0451
 117 C   :1s    -0.0221  -0.0253  -0.0167   0.0243  -0.0112   0.0015   0.0350
 118 C   :1s    -0.0399  -0.0639  -0.0678   0.1434  -0.0007  -0.0864   0.0718
 119 C   :1s    -0.1679  -0.3142  -0.3389   0.3527   0.0339  -0.1743  -0.0889
 120 C   :2px   -0.0851  -0.0890  -0.0903  -0.0495   0.0477  -0.0115  -0.0309
 121 C   :2py   -0.0688  -0.1396  -0.1411   0.1612   0.0070  -0.1304   0.0152
 122 C   :2pz    0.0152   0.0350  -0.0169  -0.3318   0.0249  -0.4180   0.0643
 123 C   :2px   -0.0376   0.0266   0.0259   0.0230  -0.0140   0.0254  -0.0795
 124 C   :2py   -0.0349   0.0137   0.0275  -0.1168   0.0058   0.0325  -0.0349
 125 C   :2pz   -0.0089  -0.0228  -0.0169   0.0836  -0.0064   0.0264   0.0009
 126 C   :2px    0.1121   0.0027   0.0124   0.0757  -0.0104   0.1001   0.0336
 127 C   :2py    0.0273  -0.0245  -0.0462   0.0853   0.0037   0.0230   0.0048
 128 C   :2pz   -0.0030   0.0093   0.0129  -0.0134   0.0023  -0.0147   0.0051
 129 C   :3d2-  -0.0033  -0.0100  -0.0110   0.0173   0.0006  -0.0020   0.0010
 132 C   :3d1+   0.0011   0.0020   0.0032   0.0002   0.0006   0.0153   0.0129
 133 C   :3d2+   0.0059   0.0053   0.0060   0.0127  -0.0025   0.0025  -0.0084
 134 C   :3d2-   0.0066   0.0491   0.0430  -0.0622  -0.0026   0.0154   0.0004
 138 C   :3d2+  -0.0061  -0.0214  -0.0190  -0.0154   0.0084  -0.0059   0.0153
 140 C   :1s    -0.0234  -0.0435  -0.0503   0.0030   0.0085   0.0096   0.0045
 141 C   :1s    -0.1184  -0.1234  -0.0697  -0.0146   0.0194  -0.0645   0.0235
 142 C   :1s    -0.1126  -0.1266  -0.0739  -0.0577   0.0045  -0.0747   0.0382
 143 C   :2px    0.1598   0.2000   0.2073   0.0730  -0.0465   0.0715  -0.1208
 144 C   :2py   -0.0049   0.0395   0.0197  -0.3144   0.0204   0.0063   0.1613
 145 C   :2pz    0.0217   0.0063  -0.0256  -0.1584   0.0268  -0.0437   0.3078
 146 C   :2px   -0.0696  -0.0660  -0.0662  -0.0522   0.0123  -0.0081  -0.0146
 147 C   :2py   -0.0616   0.0144   0.0398   0.0113  -0.0045   0.0036  -0.0579
 148 C   :2pz    0.0252  -0.0035  -0.0188   0.0016   0.0018   0.0046  -0.0138
 149 C   :2px    0.0113  -0.0387  -0.0362   0.0450  -0.0004   0.0125  -0.0229
 150 C   :2py    0.0583  -0.0948  -0.0762   0.1217  -0.0055   0.0502   0.0260
 151 C   :2pz   -0.0166   0.0282   0.0205  -0.0528   0.0015  -0.0159   0.0065
 152 C   :3d2-  -0.0049  -0.0077  -0.0059   0.0133   0.0001  -0.0043  -0.0027
 153 C   :3d1-   0.0008  -0.0002   0.0005   0.0063  -0.0004   0.0152   0.0024
 154 C   :3d0    0.0021   0.0027   0.0028   0.0029  -0.0011  -0.0102  -0.0091
 155 C   :3d1+   0.0051   0.0064   0.0067   0.0027  -0.0016   0.0106  -0.0014
 157 C   :3d2-   0.0377   0.0176   0.0151  -0.0156  -0.0068   0.0137   0.0099
 158 C   :3d1-  -0.0028  -0.0031  -0.0064  -0.0157   0.0010   0.0065   0.0041
 159 C   :3d0   -0.0164  -0.0185  -0.0164   0.0175   0.0039  -0.0077  -0.0060
 160 C   :3d1+  -0.0318  -0.0276  -0.0238   0.0161   0.0035  -0.0091  -0.0011
 161 C   :3d2+  -0.0315  -0.0378  -0.0394  -0.0046   0.0087  -0.0155   0.0036
 163 C   :1s     0.0174   0.0340   0.0273  -0.0503  -0.0068  -0.0084   0.0015
 164 C   :1s     0.0757   0.1228   0.1140  -0.1339  -0.0151   0.0605   0.0058
 165 C   :1s     0.1031   0.0316   0.0090  -0.1917  -0.0121   0.1004  -0.0429
 166 C   :2px   -0.1286  -0.1659  -0.1338   0.1706   0.0218  -0.1325  -0.0836
 167 C   :2py   -0.0150  -0.0466  -0.0476   0.0539   0.0132   0.1030   0.1561
 168 C   :2pz   -0.1071  -0.1050  -0.1216  -0.2898   0.0552   0.1734   0.2684
 169 C   :2px    0.0820   0.0278  -0.0194  -0.0172  -0.0049   0.0203   0.0192
 170 C   :2py   -0.0436   0.0242   0.0470  -0.0553  -0.0001  -0.0068  -0.0324
 171 C   :2pz    0.0472  -0.0174  -0.0341   0.0727  -0.0058  -0.0172  -0.0080
 172 C   :2px   -0.0316   0.0854   0.0698  -0.0555   0.0065  -0.0404  -0.0012
 173 C   :2py    0.0259  -0.0641  -0.0509   0.0555  -0.0017   0.0192   0.0137
 174 C   :2pz   -0.0421   0.0776   0.0557  -0.0640   0.0060  -0.0241   0.0060
 175 C   :3d2-  -0.0037  -0.0056  -0.0051   0.0078   0.0013  -0.0151   0.0070
 177 C   :3d0    0.0005   0.0009  -0.0005  -0.0098   0.0010  -0.0085   0.0106
 180 C   :3d2-   0.0226   0.0208   0.0212  -0.0445  -0.0067   0.0123  -0.0043
 181 C   :3d1-  -0.0128   0.0058   0.0166  -0.0291  -0.0031  -0.0042  -0.0070
 182 C   :3d0   -0.0080  -0.0215  -0.0223   0.0217   0.0037  -0.0115   0.0099
 183 C   :3d1+  -0.0251  -0.0171  -0.0176   0.0210   0.0079  -0.0144   0.0040
 184 C   :3d2+  -0.0492  -0.0286  -0.0092  -0.0193   0.0064  -0.0113  -0.0019
 186 C   :1s     0.0263   0.0252   0.0228  -0.0066   0.0057   0.0092   0.0278
 187 C   :1s     0.0257   0.0838   0.1543  -0.0897  -0.0711   0.0419  -0.0357
 188 C   :1s     0.2157   0.4317   0.4137   0.0576  -0.0551   0.2047  -0.0373
 189 C   :2px    0.1167   0.1369   0.1142  -0.0654  -0.0321  -0.0404  -0.0234
 190 C   :2py   -0.1402  -0.1570  -0.1564  -0.1895   0.0280   0.3355  -0.0495
 191 C   :2pz    0.0604   0.0794   0.0710  -0.0415  -0.0190   0.3049  -0.0464
 192 C   :2px    0.0868  -0.0453  -0.1157   0.1257   0.0164  -0.0017   0.0321
 193 C   :2py    0.0652   0.0471   0.0280   0.0842  -0.0058  -0.0281  -0.0010
 194 C   :2pz   -0.0175   0.0001  -0.0211  -0.0347   0.0121  -0.0264   0.0235
 195 C   :2px   -0.1317   0.0395   0.0243  -0.0538   0.0118  -0.1122  -0.0031
 196 C   :2py   -0.0034  -0.0102  -0.0250  -0.0167   0.0062   0.0111   0.0066
 197 C   :2pz   -0.0341   0.0383   0.0575  -0.0271  -0.0053   0.0050  -0.0064
 198 C   :3d2-  -0.0026  -0.0047  -0.0048   0.0044   0.0024  -0.0082   0.0117
 200 C   :3d0   -0.0042  -0.0050  -0.0051  -0.0103   0.0017   0.0077   0.0058
 201 C   :3d1+   0.0064   0.0089   0.0078  -0.0063  -0.0012   0.0001   0.0101
 203 C   :3d2-  -0.0091   0.0186   0.0333  -0.0430  -0.0071   0.0027  -0.0051
 204 C   :3d1-  -0.0233  -0.0324  -0.0213  -0.0258   0.0004  -0.0033   0.0049
 205 C   :3d0    0.0280   0.0222   0.0036   0.0273   0.0012   0.0049   0.0053
 206 C   :3d1+  -0.0132  -0.0689  -0.0661   0.0236   0.0044  -0.0149   0.0125
 207 C   :3d2+  -0.0224  -0.0308  -0.0229  -0.0315   0.0015  -0.0045  -0.0039
 209 C   :1s     0.0063  -0.0291  -0.0474   0.0437  -0.0127  -0.0568  -0.0284
 210 C   :1s    -0.0696  -0.2782  -0.2119  -0.0109  -0.0111  -0.0973   0.0219
 211 C   :1s    -0.1790  -0.5169  -0.5938   0.0316   0.0438  -0.1985  -0.0220
 212 C   :2px   -0.0478  -0.0659  -0.0441   0.1328   0.0417  -0.0833   0.0665
 213 C   :2py   -0.0159   0.0253   0.0437  -0.0620  -0.0258   0.3297  -0.2230
 214 C   :2pz   -0.1200  -0.1913  -0.2033  -0.0368   0.0395   0.1313  -0.1665
 215 C   :2px    0.1328   0.0029  -0.0537   0.0866  -0.0218   0.0263  -0.0221
 216 C   :2py    0.0552   0.0166  -0.0588   0.1192   0.0410  -0.0394   0.0478
 217 C   :2pz   -0.0575   0.0009   0.1121  -0.1538  -0.0458   0.0107  -0.0144
 218 C   :2px   -0.1200  -0.0479  -0.0699  -0.0570   0.0157  -0.1401  -0.0018
 219 C   :2py   -0.0917  -0.0115   0.0265  -0.0201   0.0019  -0.0735  -0.0274
 220 C   :2pz    0.1026  -0.0489  -0.0907   0.0764  -0.0028   0.0393  -0.0287
 223 C   :3d0   -0.0023  -0.0036  -0.0043  -0.0005  -0.0006  -0.0063  -0.0101
 224 C   :3d1+   0.0047   0.0081   0.0074  -0.0082  -0.0008   0.0124  -0.0078
 226 C   :3d2-   0.0176   0.0287   0.0117  -0.0084   0.0139  -0.0017   0.0082
 227 C   :3d1-   0.0068  -0.0164  -0.0314   0.0304   0.0128  -0.0100   0.0032
 228 C   :3d0   -0.0145   0.0196   0.0487  -0.0358  -0.0154   0.0063  -0.0131
 229 C   :3d1+  -0.0327  -0.0937  -0.0605  -0.0000  -0.0113  -0.0102  -0.0124
 230 C   :3d2+   0.0129  -0.0026  -0.0407   0.0458   0.0322  -0.0202   0.0148
 232 C   :1s     0.0126  -0.0113  -0.0030  -0.0049  -0.0332  -0.0146   0.0360
 233 C   :1s     0.3042  -0.3219  -0.2735   0.0844   0.0654   0.0427   0.0378
 234 C   :1s    -0.3957  -0.0366   0.0380   0.0738   0.0285   0.0244  -0.0603
 235 C   :2px   -0.0133   0.0720  -0.0381   0.0216   0.1193  -0.0313  -0.0215
 236 C   :2py   -0.1576   0.0661   0.0525   0.0223   0.0162  -0.0003  -0.0058
 237 C   :2pz   -0.0292   0.0102  -0.0470   0.0044  -0.2308   0.0404   0.0903
 238 C   :2px    0.0032   0.0292   0.0632   0.0522  -0.0664  -0.0220   0.0039
 239 C   :2py   -0.0910   0.1852   0.1733  -0.1139  -0.1092  -0.0113  -0.0395
 240 C   :2pz   -0.0013   0.0063   0.0141   0.0301   0.0452  -0.0069  -0.0105
 241 C   :2px    0.0576   0.0075  -0.1832  -0.0710  -0.0168   0.0402  -0.0050
 242 C   :2py   -0.2885   0.0780   0.0517  -0.0225   0.0435   0.0498   0.0337
 243 C   :2pz    0.0687  -0.0697  -0.0867  -0.0197  -0.0001  -0.0178  -0.0053
 244 C   :3d2-   0.0081   0.0069  -0.0189   0.0048  -0.0049   0.0013   0.0013
 245 C   :3d1-   0.0028   0.0055  -0.0043  -0.0011   0.0180   0.0010  -0.0039
 247 C   :3d1+  -0.0121  -0.0006   0.0005  -0.0025   0.0038   0.0007  -0.0007
 248 C   :3d2+  -0.0230   0.0152   0.0027   0.0066  -0.0025  -0.0022   0.0039
 249 C   :3d2-  -0.0317   0.0221  -0.0395  -0.0874   0.0666   0.0212  -0.0389
 250 C   :3d1-  -0.0075   0.0205  -0.0057  -0.0569   0.0304   0.0132  -0.0383
 251 C   :3d0    0.0233  -0.0250  -0.0104  -0.0098  -0.0102   0.0073   0.0037
 252 C   :3d1+   0.0146  -0.0032   0.0098  -0.0258  -0.0194   0.0101  -0.0008
 253 C   :3d2+  -0.0727   0.0951   0.0796  -0.0488  -0.0345  -0.0032  -0.0200
 255 C   :1s     0.0329  -0.0042  -0.0053  -0.0345  -0.0046   0.0050  -0.0230
 256 C   :1s    -0.1917   0.1697   0.1536   0.1565  -0.0542  -0.0341  -0.0927
 257 C   :1s    -0.2113   0.0988  -0.0794   0.1447   0.1796  -0.0536   0.0782
 258 C   :2px    0.0965   0.0069   0.0309  -0.1633   0.0796   0.0051  -0.0424
 259 C   :2py    0.1885  -0.1017  -0.0735   0.0243  -0.0464   0.0000   0.0346
 260 C   :2pz   -0.0243   0.0062  -0.0356  -0.0006  -0.3688   0.0190   0.0560
 261 C   :2px   -0.0613   0.1134  -0.0610  -0.0715  -0.1047   0.0874  -0.0585
 262 C   :2py   -0.0709   0.1556   0.1930  -0.1733  -0.1228   0.0161  -0.0367
 263 C   :2pz    0.0154   0.0225  -0.0248  -0.0043   0.0229   0.0249  -0.0251
 264 C   :2px   -0.0264  -0.0003   0.0117   0.0178  -0.0067   0.0687  -0.0681
 265 C   :2py   -0.0312   0.2466   0.1132  -0.1146   0.0416   0.1021   0.0674
 266 C   :2pz   -0.0139   0.1833   0.0575   0.1331  -0.0630  -0.0302   0.0047
 272 C   :3d2-  -0.1495   0.0985   0.0917  -0.1257   0.0891  -0.0106  -0.0389
 273 C   :3d1-   0.0044  -0.0028   0.0065  -0.0796  -0.0005   0.0152  -0.0231
 274 C   :3d0   -0.0194   0.0179   0.0073   0.0191  -0.0009  -0.0085   0.0009
 275 C   :3d1+  -0.0518   0.0124  -0.0101   0.0352   0.0229  -0.0111  -0.0067
 276 C   :3d2+   0.2184  -0.2225  -0.1638  -0.0445   0.0462   0.0659  -0.0247
 278 C   :1s     0.0182   0.0305   0.0053   0.0702   0.0203   0.0129   0.0565
 279 C   :1s    -0.0632   0.1064   0.0481   0.0687   0.1165   0.0302  -0.1055
 280 C   :1s     0.3234   0.0207   0.1160   0.0093   0.1356  -0.1229   0.2952
 281 C   :2px    0.0696  -0.0091  -0.0302   0.1984  -0.0731   0.0017   0.0248
 282 C   :2py   -0.0010   0.0382  -0.0088   0.0047  -0.0084  -0.0061  -0.1029
 283 C   :2pz    0.0713  -0.0209  -0.0851   0.0882   0.0603  -0.0086  -0.0935
 284 C   :2px   -0.0106   0.0255  -0.0958   0.1758   0.0376   0.0604  -0.0413
 285 C   :2py   -0.1295   0.1858   0.1805   0.0908   0.0283  -0.0368   0.0818
 286 C   :2pz    0.0445  -0.1236  -0.0431  -0.1487  -0.1008  -0.0273  -0.0167
 287 C   :2px    0.0178   0.0974  -0.0099   0.1544  -0.0732  -0.2388  -0.0419
 288 C   :2py   -0.1438  -0.2068  -0.1275  -0.0704  -0.0676   0.0139  -0.0998
 289 C   :2pz   -0.0737   0.0164   0.0317  -0.0404   0.0354   0.0142   0.0062
 290 C   :3d2-  -0.0020  -0.0101  -0.0073   0.0033   0.0028  -0.0064  -0.0100
 291 C   :3d1-  -0.0038   0.0040   0.0051  -0.0010  -0.0125   0.0024   0.0033
 292 C   :3d0    0.0036  -0.0003  -0.0037   0.0101   0.0136   0.0002   0.0192
 295 C   :3d2-  -0.0490   0.0621   0.0093   0.0982  -0.0337   0.0139  -0.0288
 296 C   :3d1-   0.0884  -0.0626  -0.0369  -0.0216  -0.0004   0.0306   0.0013
 297 C   :3d0   -0.0569   0.0512   0.0251   0.0310   0.0275  -0.0003   0.0017
 298 C   :3d1+  -0.0102  -0.0225   0.0031  -0.0246  -0.0074  -0.0241   0.0172
 299 C   :3d2+   0.1005  -0.0938  -0.1001  -0.0222   0.0039   0.0608  -0.0205
 301 C   :1s    -0.0200   0.0343  -0.0189   0.0031   0.0186  -0.0108   0.0261
 302 C   :1s     0.0954  -0.1537  -0.0492   0.0941   0.0029  -0.0059   0.0697
 303 C   :1s     0.2867  -0.2858   0.2466  -0.0390  -0.0282  -0.0752   0.0643
 304 C   :2px    0.0001  -0.1114   0.2164   0.0319  -0.0712  -0.0389   0.0496
 305 C   :2py    0.3515   0.0736  -0.3588  -0.0913  -0.0321   0.0591  -0.0646
 306 C   :2pz   -0.0969  -0.1834   0.0884  -0.1310   0.1377   0.0652  -0.0706
 307 C   :2px   -0.0265   0.0659  -0.0123  -0.0525   0.0092   0.0112  -0.0174
 308 C   :2py   -0.0654   0.0185   0.0948   0.0286  -0.0271  -0.0203   0.0192
 309 C   :2pz   -0.0221   0.0675   0.0064   0.0134  -0.0089  -0.0168   0.0004
 310 C   :2px   -0.0255   0.0415   0.0321   0.0135   0.0163   0.0116   0.0128
 311 C   :2py    0.0021   0.0223  -0.0684   0.0057  -0.0117  -0.0009  -0.0212
 312 C   :2pz   -0.0151   0.0148   0.0099   0.0018   0.0100   0.0085  -0.0003
 313 C   :3d2-   0.0118   0.0049  -0.0129  -0.0010  -0.0040  -0.0006   0.0019
 315 C   :3d0   -0.0035  -0.0029   0.0023  -0.0031   0.0107   0.0016  -0.0052
 316 C   :3d1+  -0.0067  -0.0057   0.0084  -0.0029   0.0146  -0.0018  -0.0039
 317 C   :3d2+  -0.0154  -0.0022   0.0180   0.0047  -0.0051  -0.0033   0.0081
 318 C   :3d2-   0.0072  -0.0010  -0.0229   0.0016   0.0037   0.0008  -0.0014
 319 C   :3d1-   0.0081  -0.0094  -0.0145  -0.0036   0.0094   0.0049  -0.0045
 321 C   :3d1+   0.0040  -0.0173   0.0089  -0.0059   0.0086   0.0029  -0.0031
 322 C   :3d2+  -0.0190   0.0005   0.0382   0.0174  -0.0141  -0.0106   0.0228
 324 C   :1s    -0.0261  -0.0080   0.0433  -0.0030  -0.0153  -0.0024   0.0009
 325 C   :1s     0.0162   0.0125  -0.0896  -0.0422   0.0996   0.0151  -0.0460
 326 C   :1s     0.6644  -0.0171  -0.3648   0.0809  -0.1063  -0.0790  -0.0152
 327 C   :2px    0.0887  -0.3287   0.1992  -0.0251  -0.0337   0.0016  -0.0103
 328 C   :2py    0.2800  -0.2539   0.0993   0.0116   0.0553  -0.0055  -0.0124
 329 C   :2pz    0.0756   0.0466   0.1480   0.0282   0.1494  -0.0184  -0.0313
 330 C   :2px   -0.0368   0.0814  -0.0384  -0.0181   0.0327   0.0064  -0.0252
 331 C   :2py   -0.0546   0.0567   0.0150  -0.0128  -0.0482  -0.0013   0.0124
 332 C   :2pz    0.0048  -0.0221  -0.0432  -0.0137  -0.0013   0.0091   0.0016
 333 C   :2px    0.0824  -0.0144   0.0144   0.0184   0.0040  -0.0178   0.0016
 334 C   :2py   -0.0120  -0.0193   0.0640  -0.0081   0.0135   0.0028  -0.0009
 335 C   :2pz    0.0271   0.0220   0.0046  -0.0019   0.0002   0.0124  -0.0047
 337 C   :3d1-   0.0005   0.0072   0.0019   0.0012   0.0139  -0.0022  -0.0042
 338 C   :3d0   -0.0047  -0.0020  -0.0028  -0.0012  -0.0113   0.0020   0.0035
 339 C   :3d1+  -0.0080   0.0045  -0.0071  -0.0005  -0.0111   0.0018   0.0037
 340 C   :3d2+  -0.0159   0.0228  -0.0096   0.0012   0.0019  -0.0006  -0.0001
 341 C   :3d2-   0.0095  -0.0138  -0.0042  -0.0005  -0.0079   0.0010   0.0049
 342 C   :3d1-  -0.0087   0.0137   0.0078   0.0001   0.0126  -0.0017  -0.0066
 343 C   :3d0   -0.0025  -0.0091  -0.0036  -0.0004  -0.0101   0.0013   0.0082
 344 C   :3d1+  -0.0046   0.0039  -0.0117   0.0005  -0.0142   0.0024   0.0071
 345 C   :3d2+  -0.0169   0.0281  -0.0066  -0.0100  -0.0029   0.0025  -0.0042
 347 C   :1s     0.0072  -0.0074   0.0015   0.0266   0.0096  -0.0024  -0.0007
 348 C   :1s     0.0285   0.0314   0.0188   0.1760  -0.0908  -0.0815   0.0478
 349 C   :1s    -0.2143   0.2410   0.1618  -0.0125  -0.0958   0.0966  -0.2317
 350 C   :2px   -0.0478  -0.0156  -0.0197   0.1258  -0.0514  -0.0077   0.0020
 351 C   :2py   -0.1249   0.0612   0.0315   0.0214   0.2389  -0.0039  -0.0385
 352 C   :2pz   -0.1054   0.0635   0.0243  -0.0053  -0.2124  -0.0091   0.0161
 353 C   :2px   -0.0044   0.0532   0.0193  -0.1510  -0.1169   0.0578   0.0086
 354 C   :2py    0.0130   0.1475   0.0344   0.0106  -0.0805   0.0183  -0.0122
 355 C   :2pz    0.0632   0.0438  -0.0218   0.0613  -0.0391   0.0114  -0.0087
 356 C   :2px   -0.0106   0.0306  -0.0189   0.0003  -0.1099  -0.0713  -0.0042
 357 C   :2py   -0.0075   0.0128   0.0459  -0.0664  -0.0163   0.0145  -0.0467
 358 C   :2pz   -0.0134   0.0017   0.0285  -0.0836  -0.0158   0.0014  -0.0206
 362 C   :3d1+  -0.0034  -0.0006  -0.0014   0.0017  -0.0107   0.0002  -0.0021
 363 C   :3d2+  -0.0103   0.0047   0.0041   0.0009   0.0066   0.0000   0.0019
 364 C   :3d2-  -0.1358   0.1090   0.0567  -0.0744  -0.0132   0.0033   0.0039
 365 C   :3d1-  -0.1059   0.0347   0.0260   0.0417   0.0233  -0.0332   0.0075
 366 C   :3d0   -0.0416   0.0087   0.0072   0.0268  -0.0003  -0.0187   0.0117
 367 C   :3d1+  -0.0894   0.0529   0.0347  -0.0476  -0.0153   0.0002  -0.0055
 368 C   :3d2+   0.1848  -0.0690  -0.0571  -0.0255  -0.0531   0.0561  -0.0052
 370 C   :1s     0.0152  -0.0093  -0.0151   0.0155  -0.0290   0.0029   0.0099
 371 C   :1s     0.2296  -0.0875  -0.0864  -0.0454  -0.1092   0.0719  -0.0009
 372 C   :1s     0.2417  -0.2199  -0.0754  -0.0669  -0.1507  -0.0131   0.0325
 373 C   :2px    0.0807  -0.0018  -0.0189  -0.0168  -0.0114   0.0019  -0.0089
 374 C   :2py    0.1538  -0.1028  -0.0160  -0.0117  -0.0153   0.0184   0.1079
 375 C   :2pz    0.0696  -0.0153  -0.0335  -0.0134  -0.1255  -0.0150  -0.1188
 376 C   :2px   -0.0602   0.1076   0.0706   0.0171  -0.0363   0.0132  -0.0020
 377 C   :2py    0.0950   0.0535  -0.0197  -0.0152  -0.0219   0.0535  -0.0292
 378 C   :2pz    0.0658   0.0233  -0.0152   0.0040  -0.0170   0.0342  -0.0003
 379 C   :2px   -0.1171   0.1365   0.0897   0.0127   0.0619   0.0080   0.0086
 380 C   :2py   -0.0081   0.1066   0.0578   0.0074   0.0417  -0.0245   0.0357
 381 C   :2pz   -0.0018   0.0511   0.0240   0.0294   0.0119  -0.0234   0.0171
 384 C   :3d0    0.0016  -0.0015  -0.0001  -0.0006  -0.0112  -0.0001   0.0023
 387 C   :3d2-  -0.0704   0.0407   0.0140  -0.0126   0.0095  -0.0042  -0.0056
 388 C   :3d1-  -0.0186   0.0299   0.0050   0.0087  -0.0038   0.0062  -0.0106
 389 C   :3d0   -0.0024   0.0129   0.0040   0.0070  -0.0073   0.0037  -0.0045
 390 C   :3d1+  -0.0506   0.0307   0.0119  -0.0150   0.0118  -0.0039  -0.0031
 391 C   :3d2+   0.0191  -0.0482  -0.0094  -0.0222   0.0076  -0.0130   0.0184
 393 C   :1s     0.0022  -0.0178   0.0170  -0.0186   0.0374  -0.0012  -0.0123
 394 C   :1s    -0.2002   0.1035   0.0913  -0.0793  -0.0191  -0.0151   0.0097
 395 C   :1s    -0.0918   0.1809  -0.0045   0.0596   0.0352  -0.0828   0.1640
 396 C   :2px    0.0612  -0.0086   0.0365  -0.0944   0.0659   0.0014   0.0001
 397 C   :2py    0.1172  -0.1035  -0.0060  -0.0152   0.0086  -0.0086  -0.1041
 398 C   :2pz    0.1133  -0.0824  -0.0060   0.0248  -0.0665   0.0131   0.1496
 399 C   :2px   -0.1875   0.0777   0.0173  -0.1624  -0.0227   0.0441   0.0012
 400 C   :2py    0.0105   0.0235  -0.0399   0.0040   0.0059   0.0228   0.0037
 401 C   :2pz    0.0268   0.0072  -0.0246   0.0033   0.0216   0.0123  -0.0222
 402 C   :2px    0.0817  -0.2344  -0.1268  -0.0136  -0.0249   0.0198  -0.0061
 403 C   :2py   -0.0135  -0.0353  -0.0199  -0.0003   0.0009   0.0110  -0.0236
 404 C   :2pz    0.0007   0.0021   0.0055   0.0045   0.0060   0.0162  -0.0077
 408 C   :3d1+   0.0000  -0.0019  -0.0000   0.0013  -0.0147  -0.0007  -0.0028
 409 C   :3d2+  -0.0101   0.0050   0.0020   0.0011   0.0011  -0.0004  -0.0024
 410 C   :3d2-   0.0440   0.0003  -0.0052   0.0312  -0.0015  -0.0065  -0.0008
 411 C   :3d1-  -0.0359   0.0214   0.0045   0.0089   0.0007  -0.0086   0.0043
 412 C   :3d0   -0.0346   0.0202   0.0016   0.0096   0.0038  -0.0063   0.0052
 413 C   :3d1+   0.0254  -0.0017   0.0025   0.0163   0.0035  -0.0070  -0.0027
 414 C   :3d2+   0.0809  -0.0493  -0.0094  -0.0184  -0.0100   0.0168  -0.0034
 416 C   :1s    -0.0124   0.0011   0.0078  -0.0035   0.0134  -0.0018  -0.0037
 417 C   :1s    -0.0643   0.0941   0.0351   0.0083  -0.0181   0.0195  -0.0142
 418 C   :1s    -0.3416   0.2310   0.0985   0.0127   0.0991   0.0317  -0.0675
 419 C   :2px   -0.0707   0.0052   0.0058   0.0386   0.0204  -0.0041  -0.0136
 420 C   :2py   -0.1106   0.0204   0.0395  -0.0031  -0.0831   0.0043   0.0907
 421 C   :2pz   -0.0810   0.0901  -0.0161   0.0164   0.1845  -0.0114  -0.1457
 422 C   :2px    0.0775   0.0498   0.0211   0.0388  -0.0169   0.0232  -0.0058
 423 C   :2py    0.0268   0.0186   0.0132   0.0148  -0.0200   0.0005  -0.0107
 424 C   :2pz    0.0141  -0.0033   0.0132  -0.0049  -0.0224  -0.0013   0.0077
[...]
 66   YDIPLEN   ZDIPLEN    0.060000        1.519345        0.451063

      Averaged value       0.060000      271.253119        3.957191

 67   XDIPLEN   XDIPLEN    0.061000      397.544082        8.914776
 68   YDIPLEN   YDIPLEN    0.061000      253.700587        2.640850
 69   ZDIPLEN   ZDIPLEN    0.061000      165.122168        0.856278
 70   XDIPLEN   YDIPLEN    0.061000       -4.757379       -2.033489
 71   XDIPLEN   ZDIPLEN    0.061000      -13.433195       -1.350306
 72   YDIPLEN   ZDIPLEN    0.061000        1.617884        0.477909

      Averaged value       0.061000      272.122279        4.137301

 73   XDIPLEN   XDIPLEN    0.062000      399.497755        9.362572
 74   YDIPLEN   YDIPLEN    0.062000      254.281980        2.742960
 75   ZDIPLEN   ZDIPLEN    0.062000      165.310886        0.885152
 76   XDIPLEN   YDIPLEN    0.062000       -5.199623       -2.175194
 77   XDIPLEN   ZDIPLEN    0.062000      -13.728218       -1.428525
 78   YDIPLEN   ZDIPLEN    0.062000        1.722158        0.507043

      Averaged value       0.062000      273.030207        4.330228

 79   XDIPLEN   XDIPLEN    0.063000      401.547369        9.845306
 80   YDIPLEN   YDIPLEN    0.063000      254.885440        2.851370
 81   ZDIPLEN   ZDIPLEN    0.063000      165.505853        0.915620
 82   XDIPLEN   YDIPLEN    0.063000       -5.671999       -2.330087
 83   XDIPLEN   ZDIPLEN    0.063000      -14.039933       -1.513411
 84   YDIPLEN   ZDIPLEN    0.063000        1.832639        0.538739

      Averaged value       0.063000      273.979554        4.537432

 85   XDIPLEN   XDIPLEN    0.064000      403.700094       10.367140
 86   YDIPLEN   YDIPLEN    0.064000      255.512272        2.966776
 87   ZDIPLEN   ZDIPLEN    0.064000      165.707398        0.947857
 88   XDIPLEN   YDIPLEN    0.064000       -6.177201       -2.499799
 89   XDIPLEN   ZDIPLEN    0.064000      -14.369704       -1.605777
 90   YDIPLEN   ZDIPLEN    0.064000        1.949849        0.573315

      Averaged value       0.064000      274.973255        4.760591

 91   XDIPLEN   XDIPLEN    0.065000      405.963900       10.932880
 92   YDIPLEN   YDIPLEN    0.065000      256.163915        3.089981
 93   ZDIPLEN   ZDIPLEN    0.065000      165.915885        0.982068
 94   XDIPLEN   YDIPLEN    0.065000       -6.718237       -2.686215
 95   XDIPLEN   ZDIPLEN    0.065000      -14.719050       -1.706563
 96   YDIPLEN   ZDIPLEN    0.065000        2.074372        0.611136

      Averaged value       0.065000      276.014567        5.001643

 97   XDIPLEN   XDIPLEN    0.066000      408.347668       11.548098
 98   YDIPLEN   YDIPLEN    0.066000      256.841962        3.221909
 99   ZDIPLEN   ZDIPLEN    0.066000      166.131716        1.018489
100   XDIPLEN   YDIPLEN    0.066000       -7.298474       -2.891524
101   XDIPLEN   ZDIPLEN    0.066000      -15.089667       -1.816864
102   YDIPLEN   ZDIPLEN    0.066000        2.206860        0.652628

      Averaged value       0.066000      277.107116        5.262832

103   XDIPLEN   XDIPLEN    0.067000      410.861326       12.219285
104   YDIPLEN   YDIPLEN    0.067000      257.548182        3.363634
105   ZDIPLEN   ZDIPLEN    0.067000      166.355338        1.057394
106   XDIPLEN   YDIPLEN    0.067000       -7.921683       -3.118279
107   XDIPLEN   ZDIPLEN    0.067000      -15.483457       -1.937954
108   YDIPLEN   ZDIPLEN    0.067000        2.348046        0.698290

      Averaged value       0.067000      278.254949        5.546771

109   XDIPLEN   XDIPLEN    0.068000      413.515994       12.954039
110   YDIPLEN   YDIPLEN    0.068000      258.284540        3.516406
111   ZDIPLEN   ZDIPLEN    0.068000      166.587250        1.099102
112   XDIPLEN   YDIPLEN    0.068000       -8.592111       -3.369471
113   XDIPLEN   ZDIPLEN    0.068000      -15.902555       -2.071330
114   YDIPLEN   ZDIPLEN    0.068000        2.498753        0.748705

      Averaged value       0.068000      279.462595        5.856516

115   XDIPLEN   XDIPLEN    0.069000      416.324171       13.761298
116   YDIPLEN   YDIPLEN    0.069000      259.053233        3.681691
117   ZDIPLEN   ZDIPLEN    0.069000      166.828007        1.143989
118   XDIPLEN   YDIPLEN    0.069000       -9.314542       -3.648625
119   XDIPLEN   ZDIPLEN    0.069000      -16.349366       -2.218753
120   YDIPLEN   ZDIPLEN    0.069000        2.659908        0.804561

      Averaged value       0.069000      280.735137        6.195659

121   XDIPLEN   XDIPLEN    0.070000      419.299938       14.651632
122   YDIPLEN   YDIPLEN    0.070000      259.856719        3.861216
123   ZDIPLEN   ZDIPLEN    0.070000      167.078233        1.192496
124   XDIPLEN   YDIPLEN    0.070000      -10.094384       -3.959910
125   XDIPLEN   ZDIPLEN    0.070000      -16.826606       -2.382310
126   YDIPLEN   ZDIPLEN    0.070000        2.832562        0.866675

      Averaged value       0.070000      282.078297        6.568448

127   XDIPLEN   XDIPLEN    0.071000      422.459210       15.637610
128   YDIPLEN   YDIPLEN    0.071000      260.697758        4.057028
129   ZDIPLEN   ZDIPLEN    0.071000      167.338628        1.245147
130   XDIPLEN   YDIPLEN    0.071000      -10.937766       -4.308289
131   XDIPLEN   ZDIPLEN    0.071000      -17.337351       -2.564486
132   YDIPLEN   ZDIPLEN    0.071000        3.017903        0.936020

      Averaged value       0.071000      283.498532        6.979928

133   XDIPLEN   XDIPLEN    0.072000      425.820015       16.734269
134   YDIPLEN   YDIPLEN    0.072000      261.579458        4.271568
135   ZDIPLEN   ZDIPLEN    0.072000      167.609980        1.302569
136   XDIPLEN   YDIPLEN    0.072000      -11.851653       -4.699705
137   XDIPLEN   ZDIPLEN    0.072000      -17.885092       -2.768260
138   YDIPLEN   ZDIPLEN    0.072000        3.217286        1.013762

      Averaged value       0.072000      285.003151        7.436135

139   XDIPLEN   XDIPLEN    0.073000      429.402840       17.959716
140   YDIPLEN   YDIPLEN    0.073000      262.505328        4.507765
141   ZDIPLEN   ZDIPLEN    0.073000      167.893183        1.365513
142   XDIPLEN   YDIPLEN    0.073000      -12.843978       -5.141318
143   XDIPLEN   ZDIPLEN    0.073000      -18.473807       -2.997221
144   YDIPLEN   ZDIPLEN    0.073000        3.432250        1.101311

      Averaged value       0.073000      286.600450        7.944331

145   XDIPLEN   XDIPLEN    0.074000      433.231015       19.335894
146   YDIPLEN   YDIPLEN    0.074000      263.479346        4.769158
147   ZDIPLEN   ZDIPLEN    0.074000      168.189246        1.434887
148   XDIPLEN   YDIPLEN    0.074000      -13.923799       -5.641808
149   XDIPLEN   ZDIPLEN    0.074000      -19.108032       -3.255728
150   YDIPLEN   ZDIPLEN    0.074000        3.664556        1.200375

      Averaged value       0.074000      288.299869        8.513313

151   XDIPLEN   XDIPLEN    0.075000      437.331168       20.889594
152   YDIPLEN   YDIPLEN    0.075000      264.506024        5.060057
153   ZDIPLEN   ZDIPLEN    0.075000      168.499320        1.511798
154   XDIPLEN   YDIPLEN    0.075000      -15.101475       -6.211781
155   XDIPLEN   ZDIPLEN    0.075000      -19.792957       -3.549107
156   YDIPLEN   ZDIPLEN    0.075000        3.916221        1.313048

      Averaged value       0.075000      290.112171        9.153816

157   XDIPLEN   XDIPLEN    0.076000      441.733740       22.653769
158   YDIPLEN   YDIPLEN    0.076000      265.590497        5.385749
159   ZDIPLEN   ZDIPLEN    0.076000      168.824711        1.597607
160   XDIPLEN   YDIPLEN    0.076000      -16.388873       -6.864285
161   XDIPLEN   ZDIPLEN    0.076000      -20.534522       -3.883918
162   YDIPLEN   ZDIPLEN    0.076000        4.189553        1.441908

      Averaged value       0.076000      292.049649        9.879041

163   XDIPLEN   XDIPLEN    0.077000      446.473558       24.669285
164   YDIPLEN   YDIPLEN    0.077000      266.738610        5.752773
165   ZDIPLEN   ZDIPLEN    0.077000      169.166910        1.693994
166   XDIPLEN   YDIPLEN    0.077000      -17.799599       -7.615507
167   XDIPLEN   ZDIPLEN    0.077000      -21.339539       -4.268307
168   YDIPLEN   ZDIPLEN    0.077000        4.487203        1.590159

      Averaged value       0.077000      294.126359       10.705351

169   XDIPLEN   XDIPLEN    0.078000      451.590454       26.987256
170   YDIPLEN   YDIPLEN    0.078000      267.957023        6.169291
171   ZDIPLEN   ZDIPLEN    0.078000      169.527615        1.803062
172   XDIPLEN   YDIPLEN    0.078000      -19.349234       -8.485699
173   XDIPLEN   ZDIPLEN    0.078000      -22.215805       -4.712472
174   YDIPLEN   ZDIPLEN    0.078000        4.812208        1.761817

      Averaged value       0.078000      296.358364       11.653203

175   XDIPLEN   XDIPLEN    0.079000      457.129873       29.672198
176   YDIPLEN   YDIPLEN    0.079000      269.253303        6.645583
177   ZDIPLEN   ZDIPLEN    0.079000      169.908757        1.927457
178   XDIPLEN   YDIPLEN    0.079000      -21.055587       -9.500428
179   XDIPLEN   ZDIPLEN    0.079000      -23.172232       -5.229301
180   YDIPLEN   ZDIPLEN    0.079000        5.168040        1.961957

      Averaged value       0.079000      298.763978       12.748413

181   XDIPLEN   XDIPLEN    0.080000      463.143392       32.806332
182   YDIPLEN   YDIPLEN    0.080000      270.636014        7.194724
183   ZDIPLEN   ZDIPLEN    0.080000      170.312525        2.070550
184   XDIPLEN   YDIPLEN    0.080000      -22.938894      -10.692283
185   XDIPLEN   ZDIPLEN    0.080000      -24.218942       -5.835234
186   YDIPLEN   ZDIPLEN    0.080000        5.558646        2.197061

      Averaged value       0.080000      301.363977       14.023869

187   XDIPLEN   XDIPLEN    0.081000      469.688948       36.495512
188   YDIPLEN   YDIPLEN    0.081000      272.114750        7.833520
189   ZDIPLEN   ZDIPLEN    0.081000      170.741368        2.236671
190   XDIPLEN   YDIPLEN    0.081000      -25.021912      -12.103222
191   XDIPLEN   ZDIPLEN    0.081000      -25.367315       -6.551455
192   YDIPLEN   ZDIPLEN    0.081000        5.988463        2.475483

      Averaged value       0.081000      304.181689       15.521901

193   XDIPLEN   XDIPLEN    0.082000      476.830420       40.877453
194   YDIPLEN   YDIPLEN    0.082000      273.700079        8.583798
195   ZDIPLEN   ZDIPLEN    0.082000      171.197986        2.431452
196   XDIPLEN   YDIPLEN    0.082000      -27.329754      -13.787839
197   XDIPLEN   ZDIPLEN    0.082000      -26.629899       -7.405548
198   YDIPLEN   ZDIPLEN    0.082000        6.462384        2.808110

      Averaged value       0.082000      307.242828       17.297568

199   XDIPLEN   XDIPLEN    0.083000      484.635860       46.133272
200   YDIPLEN   YDIPLEN    0.083000      275.403266        9.474225
201   ZDIPLEN   ZDIPLEN    0.083000      171.685258        2.662287
202   XDIPLEN   YDIPLEN    0.083000      -29.889192      -15.817935
203   XDIPLEN   ZDIPLEN    0.083000      -28.020049       -8.433821
204   YDIPLEN   ZDIPLEN    0.083000        6.985616        3.209276

      Averaged value       0.083000      310.574795       19.423262

205   XDIPLEN   XDIPLEN    0.084000      493.173174       52.503859
206   YDIPLEN   YDIPLEN    0.084000      277.235585       10.542862
207   ZDIPLEN   ZDIPLEN    0.084000      172.206059        2.939000
208   XDIPLEN   YDIPLEN    0.084000      -32.726905      -18.288961
209   XDIPLEN   ZDIPLEN    0.084000      -29.551039       -9.684573
210   YDIPLEN   ZDIPLEN    0.084000        7.563318        3.698060

      Averaged value       0.084000      314.204939       21.995240

211   XDIPLEN   XDIPLEN    0.085000      502.500200       60.312383
212   YDIPLEN   YDIPLEN    0.085000      279.206827       11.840768
213   ZDIPLEN   ZDIPLEN    0.085000      172.762878        3.274772
214   XDIPLEN   YDIPLEN    0.085000      -35.865703      -21.329110
215   XDIPLEN   ZDIPLEN    0.085000      -31.234126      -11.222712
216   YDIPLEN   ZDIPLEN    0.085000        8.199845        4.300114

      Averaged value       0.085000      318.156635       25.142641

217   XDIPLEN   XDIPLEN    0.086000      512.645880       69.997017
218   YDIPLEN   YDIPLEN    0.086000      281.322264       13.437050
219   ZDIPLEN   ZDIPLEN    0.086000      173.357033        3.687450
220   XDIPLEN   YDIPLEN    0.086000      -39.316852      -25.112046
221   XDIPLEN   ZDIPLEN    0.086000      -33.074647      -13.136220
222   YDIPLEN   ZDIPLEN    0.086000        8.897190        5.050219

      Averaged value       0.086000      322.441726       29.040506

223   XDIPLEN   XDIPLEN    0.087000      523.571841       82.154492
224   YDIPLEN   YDIPLEN    0.087000      283.576679       15.425769
225   ZDIPLEN   ZDIPLEN    0.087000      173.987124        4.201328
226   XDIPLEN   YDIPLEN    0.087000      -43.064995      -29.874316
227   XDIPLEN   ZDIPLEN    0.087000      -35.064341      -15.545001
228   YDIPLEN   ZDIPLEN    0.087000        9.651946        5.995794

      Averaged value       0.087000      327.045215       33.927196

229   XDIPLEN   XDIPLEN    0.088000      535.099088       97.596794
230   YDIPLEN   YDIPLEN    0.088000      285.942858       17.934828
231   ZDIPLEN   ZDIPLEN    0.088000      174.646058        4.849448
232   XDIPLEN   YDIPLEN    0.088000      -47.039079      -35.937787
233   XDIPLEN   ZDIPLEN    0.088000      -37.166556      -18.612270
234   YDIPLEN   ZDIPLEN    0.088000       10.449438        7.201400

      Averaged value       0.088000      331.896001       40.127023

235   XDIPLEN   XDIPLEN    0.089000      546.768946      117.413436
236   YDIPLEN   YDIPLEN    0.089000      288.349763       21.135765
237   ZDIPLEN   ZDIPLEN    0.089000      175.315512        5.676141
238   XDIPLEN   YDIPLEN    0.089000      -51.057261      -43.734319
239   XDIPLEN   ZDIPLEN    0.089000      -39.288225      -22.557097
240   YDIPLEN   ZDIPLEN    0.089000       11.252619        8.753710

      Averaged value       0.089000      336.811407       48.075114

241   XDIPLEN   XDIPLEN    0.090000      557.586831      143.007467
242   YDIPLEN   YDIPLEN    0.090000      290.642329       25.249415
243   ZDIPLEN   ZDIPLEN    0.090000      175.955115        6.738442
244   XDIPLEN   YDIPLEN    0.090000      -54.725400      -53.820049
245   XDIPLEN   ZDIPLEN    0.090000      -41.228233      -27.661639
246   YDIPLEN   ZDIPLEN    0.090000       11.981621       10.764375

      Averaged value       0.090000      341.394758       58.331775

247   XDIPLEN   XDIPLEN    0.091000      565.577358      176.005230
248   YDIPLEN   YDIPLEN    0.091000      292.511631       30.531760
249   ZDIPLEN   ZDIPLEN    0.091000      176.485018        8.102507
250   XDIPLEN   YDIPLEN    0.091000      -57.260787      -66.839642
251   XDIPLEN   ZDIPLEN    0.091000      -42.587774      -34.252951
252   YDIPLEN   ZDIPLEN    0.091000       12.478213       13.362802

      Averaged value       0.091000      344.858002       71.546499

253   XDIPLEN   XDIPLEN    0.092000      567.113725      217.783437
254   YDIPLEN   YDIPLEN    0.092000      293.389644       37.199690
255   ZDIPLEN   ZDIPLEN    0.092000      176.758268        9.824362
256   XDIPLEN   YDIPLEN    0.092000      -57.226499      -83.338882
257   XDIPLEN   ZDIPLEN    0.092000      -42.635253      -42.607658
258   YDIPLEN   ZDIPLEN    0.092000       12.452284       16.658388

      Averaged value       0.092000      345.753879       88.269163

259   XDIPLEN   XDIPLEN    0.093000      556.262713      268.102324
260   YDIPLEN   YDIPLEN    0.093000      292.346391       45.216540
261   ZDIPLEN   ZDIPLEN    0.093000      176.534316       11.894465
262   XDIPLEN   YDIPLEN    0.093000      -52.271764     -103.223331
263   XDIPLEN   ZDIPLEN    0.093000      -40.174242      -52.676654
264   YDIPLEN   ZDIPLEN    0.093000       11.429519       20.631432

      Averaged value       0.093000      341.714473      108.404443

265   XDIPLEN   XDIPLEN    0.094000      525.284972      322.344314
266   YDIPLEN   YDIPLEN    0.094000      288.168557       53.858538
267   ZDIPLEN   ZDIPLEN    0.094000      175.499342       14.125605
268   XDIPLEN   YDIPLEN    0.094000      -39.330346     -124.664022
269   XDIPLEN   ZDIPLEN    0.094000      -33.644333      -63.528613
270   YDIPLEN   ZDIPLEN    0.094000        8.791352       24.912640

      Averaged value       0.094000      329.650957      130.109486

271   XDIPLEN   XDIPLEN    0.095000      468.723005      368.544739
272   YDIPLEN   YDIPLEN    0.095000      280.001210       61.248802
273   ZDIPLEN   ZDIPLEN    0.095000      173.432175       16.032407
274   XDIPLEN   YDIPLEN    0.095000      -16.240158     -142.921212
275   XDIPLEN   ZDIPLEN    0.095000      -21.944663      -72.751822
276   YDIPLEN   ZDIPLEN    0.095000        4.101246       28.546119

      Averaged value       0.095000      307.385463      148.608649

277   XDIPLEN   XDIPLEN    0.096000      391.514579      389.717310
278   YDIPLEN   YDIPLEN    0.096000      268.621472       64.722429
279   ZDIPLEN   ZDIPLEN    0.096000      170.533621       16.925725
280   XDIPLEN   YDIPLEN    0.096000       15.042119     -151.265752
281   XDIPLEN   ZDIPLEN    0.096000       -6.068480      -76.922617
282   YDIPLEN   ZDIPLEN    0.096000       -2.247691       30.174953

      Averaged value       0.096000      276.889890      157.121821

283   XDIPLEN   XDIPLEN    0.097000      312.128523      375.879947
284   YDIPLEN   YDIPLEN    0.097000      256.930804       62.714369
285   ZDIPLEN   ZDIPLEN    0.097000      167.553740       16.400775
286   XDIPLEN   YDIPLEN    0.097000       47.198593     -145.743851
287   XDIPLEN   ZDIPLEN    0.097000       10.265127      -74.028114
288   YDIPLEN   ZDIPLEN    0.097000       -8.782421       29.001086

      Averaged value       0.097000      245.537689      151.665031

289   XDIPLEN   XDIPLEN    0.098000      250.744041      333.973467
290   YDIPLEN   YDIPLEN    0.098000      248.099441       56.316551
291   ZDIPLEN   ZDIPLEN    0.098000      165.312066       14.739738
292   XDIPLEN   YDIPLEN    0.098000       72.233575     -129.106989
293   XDIPLEN   ZDIPLEN    0.098000       22.992744      -65.464399
294   YDIPLEN   ZDIPLEN    0.098000      -13.893552       25.576988

      Averaged value       0.098000      221.385183      135.009918

295   XDIPLEN   XDIPLEN    0.099000      215.184932      280.786282
296   YDIPLEN   YDIPLEN    0.099000      243.358390       48.167321
297   ZDIPLEN   ZDIPLEN    0.099000      164.126707       12.624603
298   XDIPLEN   YDIPLEN    0.099000       87.046493     -108.008733
299   XDIPLEN   ZDIPLEN    0.099000       30.540447      -54.610964
300   YDIPLEN   ZDIPLEN    0.099000      -16.958128       21.240799

      Averaged value       0.099000      207.556676      113.859402

301   XDIPLEN   XDIPLEN    0.100000      201.381134      229.791331
302   YDIPLEN   YDIPLEN    0.100000      242.071924       40.385284
303   ZDIPLEN   ZDIPLEN    0.100000      163.833078       10.602931
304   XDIPLEN   YDIPLEN    0.100000       93.249011      -87.789572
305   XDIPLEN   ZDIPLEN    0.100000       33.730858      -44.178622
306   YDIPLEN   ZDIPLEN    0.100000      -18.302817       17.065507

      Averaged value       0.100000      202.428712       93.593182
 
 ------------------------------------------------------------------
 Damping parameter equals  0.004557 au = 0.1240 eV = 1000.1 cm-1

  Total CPU  time used in RESPONSE:  10 hours 39 minutes 44 seconds
  Total wall time used in RESPONSE:  10 hours 40 minutes 22 seconds


                   .-------------------------------------------.
                   | End of Dynamic Property Section (RESPONS) |
                   `-------------------------------------------'

  Total CPU  time used in DALTON:  16 hours  6 minutes  8 seconds
  Total wall time used in DALTON:  16 hours  6 minutes 49 seconds

 
     Date and time (Linux)  : Wed Sep 11 01:02:06 2019
     Host name              : node361.cluster                         
