

     ************************************************************************
     *************** Dalton - An Electronic Structure Program ***************
     ************************************************************************

    This is output from DALTON release Dalton2016.1 (2016)
         ( Web site: http://daltonprogram.org )

   ----------------------------------------------------------------------------

    NOTE:
     
    Dalton is an experimental code for the evaluation of molecular
    properties using (MC)SCF, DFT, CI, and CC wave functions.
    The authors accept no responsibility for the performance of
    the code or for the correctness of the results.
     
    The code (in whole or part) is provided under a licence and
    is not to be reproduced for further distribution without
    the written permission of the authors or their representatives.
     
    See the home page "http://daltonprogram.org" for further information.
     
    If results obtained with this code are published,
    the appropriate citations would be both of:
     
       K. Aidas, C. Angeli, K. L. Bak, V. Bakken, R. Bast,
       L. Boman, O. Christiansen, R. Cimiraglia, S. Coriani,
       P. Dahle, E. K. Dalskov, U. Ekstroem,
       T. Enevoldsen, J. J. Eriksen, P. Ettenhuber, B. Fernandez,
       L. Ferrighi, H. Fliegl, L. Frediani, K. Hald, A. Halkier,
       C. Haettig, H. Heiberg, T. Helgaker, A. C. Hennum,
       H. Hettema, E. Hjertenaes, S. Hoest, I.-M. Hoeyvik,
       M. F. Iozzi, B. Jansik, H. J. Aa. Jensen, D. Jonsson,
       P. Joergensen, J. Kauczor, S. Kirpekar,
       T. Kjaergaard, W. Klopper, S. Knecht, R. Kobayashi, H. Koch,
       J. Kongsted, A. Krapp, K. Kristensen, A. Ligabue,
       O. B. Lutnaes, J. I. Melo, K. V. Mikkelsen, R. H. Myhre,
       C. Neiss, C. B. Nielsen, P. Norman, J. Olsen,
       J. M. H. Olsen, A. Osted, M. J. Packer, F. Pawlowski,
       T. B. Pedersen, P. F. Provasi, S. Reine, Z. Rinkevicius,
       T. A. Ruden, K. Ruud, V. Rybkin, P. Salek, C. C. M. Samson,
       A. Sanchez de Meras, T. Saue, S. P. A. Sauer,
       B. Schimmelpfennig, K. Sneskov, A. H. Steindal,
       K. O. Sylvester-Hvid, P. R. Taylor, A. M. Teale,
       E. I. Tellgren, D. P. Tew, A. J. Thorvaldsen, L. Thoegersen,
       O. Vahtras, M. A. Watson, D. J. D. Wilson, M. Ziolkowski
       and H. Agren,
       "The Dalton quantum chemistry program system",
       WIREs Comput. Mol. Sci. 2014, 4:269–284 (doi: 10.1002/wcms.1172)
     
    and
     
       Dalton, a Molecular Electronic Structure Program,
       Release Dalton2016.1 (2016), see http://daltonprogram.org
   ----------------------------------------------------------------------------

    Authors in alphabetical order (major contribution(s) in parenthesis):

  Kestutis Aidas,           Vilnius University,           Lithuania   (QM/MM)
  Celestino Angeli,         University of Ferrara,        Italy       (NEVPT2)
  Keld L. Bak,              UNI-C,                        Denmark     (AOSOPPA, non-adiabatic coupling, magnetic properties)
  Vebjoern Bakken,          University of Oslo,           Norway      (DALTON; geometry optimizer, symmetry detection)
  Radovan Bast,             UiT The Arctic U. of Norway,  Norway      (DALTON installation and execution frameworks)
  Pablo Baudin,             University of Valencia,       Spain       (Cholesky excitation energies)
  Linus Boman,              NTNU,                         Norway      (Cholesky decomposition and subsystems)
  Ove Christiansen,         Aarhus University,            Denmark     (CC module)
  Renzo Cimiraglia,         University of Ferrara,        Italy       (NEVPT2)
  Sonia Coriani,            University of Trieste,        Italy       (CC module, MCD in RESPONS)
  Janusz Cukras,            University of Trieste,        Italy       (MChD in RESPONS)
  Paal Dahle,               University of Oslo,           Norway      (Parallelization)
  Erik K. Dalskov,          UNI-C,                        Denmark     (SOPPA)
  Thomas Enevoldsen,        Univ. of Southern Denmark,    Denmark     (SOPPA)
  Janus J. Eriksen,         Aarhus University,            Denmark     (Polarizable embedding model, TDA)
  Rasmus Faber,             University of Copenhagen,     Denmark     (Vib.avg. NMR with SOPPA, parallel AO-SOPPA)
  Berta Fernandez,          U. of Santiago de Compostela, Spain       (doublet spin, ESR in RESPONS)
  Lara Ferrighi,            Aarhus University,            Denmark     (PCM Cubic response)
  Heike Fliegl,             University of Oslo,           Norway      (CCSD(R12))
  Luca Frediani,            UiT The Arctic U. of Norway,  Norway      (PCM)
  Bin Gao,                  UiT The Arctic U. of Norway,  Norway      (Gen1Int library)
  Christof Haettig,         Ruhr-University Bochum,       Germany     (CC module)
  Kasper Hald,              Aarhus University,            Denmark     (CC module)
  Asger Halkier,            Aarhus University,            Denmark     (CC module)
  Frederik Beyer Hansen,    University of Copenhagen,     Denmark     (Parallel AO-SOPPA)
  Erik D. Hedegaard,        Univ. of Southern Denmark,    Denmark     (Polarizable embedding model, QM/MM)
  Hanne Heiberg,            University of Oslo,           Norway      (geometry analysis, selected one-electron integrals)
  Trygve Helgaker,          University of Oslo,           Norway      (DALTON; ABACUS, ERI, DFT modules, London, and much more)
  Alf Christian Hennum,     University of Oslo,           Norway      (Parity violation)
  Hinne Hettema,            University of Auckland,       New Zealand (quadratic response in RESPONS; SIRIUS supersymmetry)
  Eirik Hjertenaes,         NTNU,                         Norway      (Cholesky decomposition)
  Maria Francesca Iozzi,    University of Oslo,           Norway      (RPA)
  Brano Jansik              Technical Univ. of Ostrava    Czech Rep.  (DFT cubic response)
  Hans Joergen Aa. Jensen,  Univ. of Southern Denmark,    Denmark     (DALTON; SIRIUS, RESPONS, ABACUS modules, London, and much more)
  Dan Jonsson,              UiT The Arctic U. of Norway,  Norway      (cubic response in RESPONS module)
  Poul Joergensen,          Aarhus University,            Denmark     (RESPONS, ABACUS, and CC modules)
  Maciej Kaminski,          University of Warsaw,         Poland      (CPPh in RESPONS)
  Joanna Kauczor,           Linkoeping University,        Sweden      (Complex polarization propagator (CPP) module)
  Sheela Kirpekar,          Univ. of Southern Denmark,    Denmark     (Mass-velocity & Darwin integrals)
  Wim Klopper,              KIT Karlsruhe,                Germany     (R12 code in CC, SIRIUS, and ABACUS modules)
  Stefan Knecht,            ETH Zurich,                   Switzerland (Parallel CI and MCSCF)
  Rika Kobayashi,           Australian National Univ.,    Australia   (DIIS in CC, London in MCSCF)
  Henrik Koch,              NTNU,                         Norway      (CC module, Cholesky decomposition)
  Jacob Kongsted,           Univ. of Southern Denmark,    Denmark     (Polarizable embedding model, QM/MM)
  Andrea Ligabue,           University of Modena,         Italy       (CTOCD, AOSOPPA)
  Nanna H. List             Univ. of Southern Denmark,    Denmark     (Polarizable embedding model)
  Ola B. Lutnaes,           University of Oslo,           Norway      (DFT Hessian)
  Juan I. Melo,             University of Buenos Aires,   Argentina   (LRESC, Relativistic Effects on NMR Shieldings)
  Kurt V. Mikkelsen,        University of Copenhagen,     Denmark     (MC-SCRF and QM/MM)
  Rolf H. Myhre,            NTNU,                         Norway      (Cholesky, subsystems and ECC2)
  Christian Neiss,          Univ. Erlangen-Nuernberg,     Germany     (CCSD(R12))
  Christian B. Nielsen,     University of Copenhagen,     Denmark     (QM/MM)
  Patrick Norman,           Linkoeping University,        Sweden      (Cubic response and complex frequency response in RESPONS)
  Jeppe Olsen,              Aarhus University,            Denmark     (SIRIUS CI/density modules)
  Jogvan Magnus H. Olsen,   Univ. of Southern Denmark,    Denmark     (Polarizable embedding model, QM/MM)
  Anders Osted,             Copenhagen University,        Denmark     (QM/MM)
  Martin J. Packer,         University of Sheffield,      UK          (SOPPA)
  Filip Pawlowski,          Kazimierz Wielki University,  Poland      (CC3)
  Morten N. Pedersen,       Univ. of Southern Denmark,    Denmark     (Polarizable embedding model)
  Thomas B. Pedersen,       University of Oslo,           Norway      (Cholesky decomposition)
  Patricio F. Provasi,      University of Northeastern,   Argentina   (Analysis of coupling constants in localized orbitals)
  Zilvinas Rinkevicius,     KTH Stockholm,                Sweden      (open-shell DFT, ESR)
  Elias Rudberg,            KTH Stockholm,                Sweden      (DFT grid and basis info)
  Torgeir A. Ruden,         University of Oslo,           Norway      (Numerical derivatives in ABACUS)
  Kenneth Ruud,             UiT The Arctic U. of Norway,  Norway      (DALTON; ABACUS magnetic properties and much more)
  Pawel Salek,              KTH Stockholm,                Sweden      (DALTON; DFT code)
  Claire C. M. Samson       University of Karlsruhe       Germany     (Boys localization, r12 integrals in ERI)
  Alfredo Sanchez de Meras, University of Valencia,       Spain       (CC module, Cholesky decomposition)
  Trond Saue,               Paul Sabatier University,     France      (direct Fock matrix construction)
  Stephan P. A. Sauer,      University of Copenhagen,     Denmark     (SOPPA(CCSD), SOPPA prop., AOSOPPA, vibrational g-factors)
  Bernd Schimmelpfennig,    Forschungszentrum Karlsruhe,  Germany     (AMFI module)
  Kristian Sneskov,         Aarhus University,            Denmark     (Polarizable embedding model, QM/MM)
  Arnfinn H. Steindal,      UiT The Arctic U. of Norway,  Norway      (parallel QM/MM, Polarizable embedding model)
  Casper Steinmann,         Univ. of Southern Denmark,    Denmark     (QFIT, Polarizable embedding model)
  K. O. Sylvester-Hvid,     University of Copenhagen,     Denmark     (MC-SCRF)
  Peter R. Taylor,          VLSCI/Univ. of Melbourne,     Australia   (Symmetry handling ABACUS, integral transformation)
  Andrew M. Teale,          University of Nottingham,     England     (DFT-AC, DFT-D)
  David P. Tew,             University of Bristol,        England     (CCSD(R12))
  Olav Vahtras,             KTH Stockholm,                Sweden      (triplet response, spin-orbit, ESR, TDDFT, open-shell DFT)
  David J. Wilson,          La Trobe University,          Australia   (DFT Hessian and DFT magnetizabilities)
  Hans Agren,               KTH Stockholm,                Sweden      (SIRIUS module, RESPONS, MC-SCRF solvation model)
 --------------------------------------------------------------------------------

     Date and time (Linux)  : Tue Sep 10 08:41:14 2019
     Host name              : node367.cluster                         

 * Work memory size             :  2048000000 = 15.259 gigabytes.

 * Directories for basis set searches:
   1) /groups/kemi/andreasb/DHAVHF_exc/imag_polar/VHF_trans
   2) /lustre/hpc/software/kemi/DALTON2016/build-parallel/basis


Compilation information
-----------------------

 Who compiled             | sauer
 Host                     | fend01.cluster
 System                   | Linux-2.6.32-642.6.2.el6.x86_64
 CMake generator          | Unix Makefiles
 Processor                | x86_64
 64-bit integers          | OFF
 MPI                      | ON
 Fortran compiler         | /software/kemi/openmpi-1.6.5-i4/bin/mpif90
 Fortran compiler version | ifort (IFORT) 13.0.1 20121010
 C compiler               | /software/kemi/openmpi-1.6.5-i4/bin/mpicc
 C compiler version       | icc (ICC) 13.0.1 20121010
 C++ compiler             | /software/kemi/openmpi-1.6.5-i4/bin/mpicxx
 C++ compiler version     | unknown
 BLAS                     | /users/software/kemi/intel/Compiler/composer_xe_20
                          | 13.1.117/mkl/lib/intel64/libmkl_intel_lp64.so;/use
                          | rs/software/kemi/intel/Compiler/composer_xe_2013.1
                          | .117/mkl/lib/intel64/libmkl_sequential.so;/users/s
                          | oftware/kemi/intel/Compiler/composer_xe_2013.1.117
                          | /mkl/lib/intel64/libmkl_core.so;/usr/lib64/libpthr
                          | ead.so;/usr/lib64/libm.so
 LAPACK                   | /users/software/kemi/intel/Compiler/composer_xe_20
                          | 13.1.117/mkl/lib/intel64/libmkl_lapack95_lp64.a;/u
                          | sers/software/kemi/intel/Compiler/composer_xe_2013
                          | .1.117/mkl/lib/intel64/libmkl_intel_lp64.so
 Static linking           | OFF
 Last Git revision        | a10ef0cf7cc62686ecfeaafb7364c9b014fdc003
 Configuration time       | 2017-07-05 12:54:37.340882

 * MPI run using 8 processes.


   Content of the .dal input file
 ----------------------------------

**DALTON                                          
.RUN RESPONSE                                     
.DIRECT                                           
**WAVE FUNCTIONS                                  
.DFT                                              
CAMB3LYP                                          
**RESPONSE                                        
*ABSORPTION                                       
.ALPHA                                            
.DAMPING                                          
 0.0045566                                        
.FREQ INTERVAL                                    
 0.20 0.25 0.001                                  
**END OF                                          


   Content of the .mol file
 ----------------------------

ATOMBASIS                                                                      
VHF_trans.xyz                                                                  
Hej Bendte                                                                     
Atomtypes=3 Charge=0 Nosymmetry Angstrom                                       
  7.0000     3 Bas=aug-cc-pVDZ                                                 
N    1.350260000       -4.003450000       -0.723930000                         
N    4.437170000       -0.969950000       -0.525430000                         
N   -0.414850000       -2.205130000        1.405920000                         
  6.0000    18 Bas=aug-cc-pVDZ                                                 
C   -1.536260000       -0.440500000        0.220090000                         
C   -2.742610000       -0.847040000        0.929990000                         
C   -4.044840000       -0.569920000        0.697170000                         
C   -4.660100000        0.191740000       -0.363220000                         
C   -4.036050000        0.948980000       -1.288530000                         
C   -2.615540000        1.155940000       -1.445760000                         
C   -1.567070000        0.569490000       -0.825780000                         
C    1.935240000       -1.535590000       -0.231700000                         
C    0.972160000       -0.625800000        0.135930000                         
C   -0.356890000       -1.077870000        0.560310000                         
C    1.611910000       -2.904450000       -0.501110000                         
C    3.317450000       -1.202610000       -0.392780000                         
C    1.305630000        0.814170000        0.230970000                         
C    2.073670000        1.450510000       -0.750660000                         
C    0.823530000        1.560900000        1.311470000                         
C    2.354110000        2.806020000       -0.650410000                         
C    1.118490000        2.913750000        1.415830000                         
C    1.881080000        3.539170000        0.434230000                         
  1.0000    13 Bas=aug-cc-pVDZ                                                 
H    0.224040000        1.072560000        2.071630000                         
H    0.751730000        3.480510000        2.263830000                         
H   -2.538430000       -1.452920000        1.806820000                         
H   -4.743630000       -0.988640000        1.416270000                         
H   -5.745050000        0.165430000       -0.390190000                         
H   -4.661960000        1.477490000       -2.001110000                         
H   -2.350220000        1.871340000       -2.218790000                         
H   -0.597890000        0.873480000       -1.202500000                         
H    2.428390000        0.889990000       -1.608190000                         
H    2.940490000        3.290900000       -1.422180000                         
H    2.104850000        4.597090000        0.512630000                         
H    0.486950000       -2.509980000        1.743610000                         
H   -0.910800000       -2.998840000        1.015890000                         


       *******************************************************************
       *********** Output from DALTON general input processing ***********
       *******************************************************************

 --------------------------------------------------------------------------------
   Overall default print level:    0
   Print level for DALTON.STAT:    1

    Parallel calculation using MPI
    AO-direct calculation (in sections where implemented)
    HERMIT 1- and 2-electron integral sections will be executed
    "Old" integral transformation used (limited to max 255 basis functions)
    Wave function sections will be executed (SIRIUS module)
    Dynamic molecular response properties section will be executed (RESPONSE module)
 --------------------------------------------------------------------------------


   ****************************************************************************
   *************** Output of molecule and basis set information ***************
   ****************************************************************************


    The two title cards from your ".mol" input:
    ------------------------------------------------------------------------
 1: VHF_trans.xyz                                                           
 2: Hej Bendte                                                              
    ------------------------------------------------------------------------

  Coordinates are entered in Angstrom and converted to atomic units.
          - Conversion factor : 1 bohr = 0.52917721 A

  Atomic type no.    1
  --------------------
  Nuclear charge:   7.00000
  Number of symmetry independent centers:    3
  Number of basis sets to read;    2
  The basis set is "aug-cc-pVDZ" from the basis set library.
  Basis set file used for this atomic type with Z =   7 :
     "/lustre/hpc/software/kemi/DALTON2016/build-parallel/basis/aug-cc-pVDZ"

  Atomic type no.    2
  --------------------
  Nuclear charge:   6.00000
  Number of symmetry independent centers:   18
  Number of basis sets to read;    2
  The basis set is "aug-cc-pVDZ" from the basis set library.
  Basis set file used for this atomic type with Z =   6 :
     "/lustre/hpc/software/kemi/DALTON2016/build-parallel/basis/aug-cc-pVDZ"

  Atomic type no.    3
  --------------------
  Nuclear charge:   1.00000
  Number of symmetry independent centers:   13
  Number of basis sets to read;    2
  The basis set is "aug-cc-pVDZ" from the basis set library.
  Basis set file used for this atomic type with Z =   1 :
     "/lustre/hpc/software/kemi/DALTON2016/build-parallel/basis/aug-cc-pVDZ"


                         SYMGRP: Point group information
                         -------------------------------

@    Point group: C1 


                                 Isotopic Masses
                                 ---------------

                           N          14.003074
                           N          14.003074
                           N          14.003074
                           C          12.000000
                           C          12.000000
                           C          12.000000
                           C          12.000000
                           C          12.000000
                           C          12.000000
                           C          12.000000
                           C          12.000000
                           C          12.000000
                           C          12.000000
                           C          12.000000
                           C          12.000000
                           C          12.000000
                           C          12.000000
                           C          12.000000
                           C          12.000000
                           C          12.000000
                           C          12.000000
                           H           1.007825
                           H           1.007825
                           H           1.007825
                           H           1.007825
                           H           1.007825
                           H           1.007825
                           H           1.007825
                           H           1.007825
                           H           1.007825
                           H           1.007825
                           H           1.007825
                           H           1.007825
                           H           1.007825

                       Total mass:   271.110947 amu
                       Natural abundance:  80.883 %

 Center-of-mass coordinates (a.u.):    0.087333   -0.067709   -0.013745


  Atoms and basis sets
  --------------------

  Number of atom types :    3
  Total number of atoms:   34

  label    atoms   charge   prim   cont     basis
  ----------------------------------------------------------------------
  N           3    7.0000    35    23      [10s5p2d|4s3p2d]                                   
  C          18    6.0000    35    23      [10s5p2d|4s3p2d]                                   
  H          13    1.0000    11     9      [5s2p|3s2p]                                        
  ----------------------------------------------------------------------
  total:     34  142.0000   878   600
  ----------------------------------------------------------------------
  Spherical harmonic basis used.

  Threshold for neglecting AO integrals:  1.00D-12

  Max    interatomic separation is   10.2462 Angstrom (   19.3625 Bohr)
  between atoms   26 and    2, "H     " and "N     ".

  Min HX interatomic separation is    1.0101 Angstrom (    1.9087 Bohr)

  Min YX interatomic separation is    1.1513 Angstrom (    2.1756 Bohr)


  Bond distances (Angstrom):
  --------------------------

                  atom 1     atom 2       distance
                  ------     ------       --------
  bond distance:  C          C            1.457571
  bond distance:  C          C            1.351593
  bond distance:  C          C            1.443294
  bond distance:  C          C            1.348721
  bond distance:  C          C            1.444092
  bond distance:  C          C            1.454260
  bond distance:  C          C            1.351883
  bond distance:  C          C            1.374916
  bond distance:  C          N            1.410365
  bond distance:  C          C            1.383078
  bond distance:  C          C            1.466574
  bond distance:  C          N            1.151482
  bond distance:  C          C            1.432097
  bond distance:  C          N            1.151303
  bond distance:  C          C            1.430848
  bond distance:  C          C            1.481131
  bond distance:  C          C            1.399433
  bond distance:  C          C            1.399109
  bond distance:  C          C            1.387841
  bond distance:  C          C            1.388559
  bond distance:  C          C            1.392017
  bond distance:  C          C            1.391486
  bond distance:  H          C            1.084300
  bond distance:  H          C            1.083898
  bond distance:  H          C            1.085178
  bond distance:  H          C            1.086618
  bond distance:  H          C            1.085604
  bond distance:  H          C            1.085752
  bond distance:  H          C            1.086171
  bond distance:  H          C            1.083346
  bond distance:  H          C            1.084143
  bond distance:  H          C            1.083780
  bond distance:  H          C            1.084165
  bond distance:  H          N            1.010055
  bond distance:  H          N            1.013936


  Bond angles (degrees):
  ----------------------

                  atom 1     atom 2     atom 3         angle
                  ------     ------     ------         -----
  bond angle:     C          N          H            113.891
  bond angle:     C          N          H            114.528
  bond angle:     H          N          H            109.211
  bond angle:     C          C          C            121.766
  bond angle:     C          C          C            117.220
  bond angle:     C          C          C            120.999
  bond angle:     C          C          C            131.021
  bond angle:     C          C          H            113.175
  bond angle:     C          C          H            115.781
  bond angle:     C          C          C            130.201
  bond angle:     C          C          H            115.252
  bond angle:     C          C          H            114.546
  bond angle:     C          C          C            127.092
  bond angle:     C          C          H            115.562
  bond angle:     C          C          H            117.321
  bond angle:     C          C          C            127.611
  bond angle:     C          C          H            117.183
  bond angle:     C          C          H            115.204
  bond angle:     C          C          C            130.602
  bond angle:     C          C          H            114.341
  bond angle:     C          C          H            115.003
  bond angle:     C          C          C            130.355
  bond angle:     C          C          H            115.215
  bond angle:     C          C          H            114.370
  bond angle:     C          C          C            121.644
  bond angle:     C          C          C            123.557
  bond angle:     C          C          C            114.794
  bond angle:     C          C          C            120.543
  bond angle:     C          C          C            120.183
  bond angle:     C          C          C            119.022
  bond angle:     N          C          C            118.736
  bond angle:     N          C          C            117.201
  bond angle:     C          C          C            124.023
  bond angle:     N          C          C            179.670
  bond angle:     N          C          C            178.199
  bond angle:     C          C          C            121.375
  bond angle:     C          C          C            119.397
  bond angle:     C          C          C            119.218
  bond angle:     C          C          C            120.288
  bond angle:     C          C          H            119.954
  bond angle:     C          C          H            119.735
  bond angle:     C          C          C            120.321
  bond angle:     C          C          H            119.443
  bond angle:     C          C          H            120.235
  bond angle:     C          C          C            120.134
  bond angle:     C          C          H            119.661
  bond angle:     C          C          H            120.204
  bond angle:     C          C          C            120.086
  bond angle:     C          C          H            119.760
  bond angle:     C          C          H            120.154
  bond angle:     C          C          C            119.945
  bond angle:     C          C          H            120.009
  bond angle:     C          C          H            120.045




 Principal moments of inertia (u*A**2) and principal axes
 --------------------------------------------------------

   IA    1210.615506          0.999583   -0.028844   -0.001041
   IB    1936.095953          0.028857    0.999443    0.016738
   IC    2719.571691          0.000558   -0.016761    0.999859


 Rotational constants
 --------------------

               A                   B                   C

            417.4562            261.0299            185.8304 MHz
            0.013925            0.008707            0.006199 cm-1


@  Nuclear repulsion energy : 1474.303175433221 Hartree


                     .---------------------------------------.
                     | Starting in Integral Section (HERMIT) |
                     `---------------------------------------'



 ***************************************************************************************
 ****************** Output from **INTEGRALS input processing (HERMIT) ******************
 ***************************************************************************************


 - Using defaults, no **INTEGRALS input found

 Default print level:        1

 * Nuclear model: Point charge

 Calculation of one-electron Hamiltonian integrals.

 Center of mass  (bohr):      0.087333328132     -0.067709261796     -0.013744918457
 Operator center (bohr):      0.000000000000      0.000000000000      0.000000000000
 Gauge origin    (bohr):      0.000000000000      0.000000000000      0.000000000000
 Dipole origin   (bohr):      0.000000000000      0.000000000000      0.000000000000


     ************************************************************************
     ************************** Output from HERINT **************************
     ************************************************************************

  Time used in ONEDRV     is       1.72 seconds
  Time used in HUCKEL     is       0.58 seconds
  Time used in OVERLAP    is       0.24 seconds
  Time used in POPOVLP    is       0.47 seconds
  Time used in DIPLEN     is       0.27 seconds
  Time used in QUADRUP    is       0.71 seconds
  Time used in KINENE     is       0.60 seconds
  Time used in GABGEN     is       2.56 seconds
  Total CPU  time used in HERMIT:   7.15 seconds
  Total wall time used in HERMIT:   7.40 seconds


                        .----------------------------------.
                        | End of Integral Section (HERMIT) |
                        `----------------------------------'



                   .--------------------------------------------.
                   | Starting in Wave Function Section (SIRIUS) |
                   `--------------------------------------------'



@ Primary orbitals are deleted during canonical orthonormalization
@   because of detected numerical linear dependence or too large coefficients.
@ Eigenvalue threshold for num. lin. dep. =  1.00D-06

@   2 MO components are deleted in symmetry    1
 Overlap eigenvalues of the deleted orbitals:
  8.50D-07  6.50D-07

 Max MO coeff. of last deleted MO & limit:  6.22D+02  1.00D+03

WARNING: Orbitals have been deleted because of numerical
   linear dependence although not requested in input.

 *** Output from Huckel module :

     Using EWMO model:          T
     Using EHT  model:          F
     Number of Huckel orbitals each symmetry:  118

 EWMO - Energy Weighted Maximum Overlap - is a Huckel type method,
        which normally is better than Extended Huckel Theory.
 Reference: Linderberg and Ohrn, Propagators in Quantum Chemistry (Wiley, 1973)

 Huckel EWMO eigenvalues for symmetry :  1
          -15.674841     -15.673676     -15.673366     -11.366991     -11.363424
          -11.362732     -11.358904     -11.356288     -11.355252     -11.354774
          -11.353772     -11.352373     -11.351089     -11.348993     -11.347859
          -11.347607     -11.347171     -11.345347     -11.344608     -11.344389
          -11.344035      -2.084305      -1.934286      -1.859530      -1.684425
           -1.605581      -1.511889      -1.462078      -1.419552      -1.382787
           -1.254390      -1.180833      -1.126450      -1.060067      -1.014477
           -0.977150      -0.942970      -0.896171      -0.848431      -0.825027
           -0.782842      -0.754702      -0.730199      -0.721204      -0.699898
           -0.672472      -0.648151      -0.628061      -0.619030      -0.600080
           -0.589515      -0.586100      -0.563088      -0.559585      -0.541881
           -0.530108      -0.525961      -0.516387      -0.482285      -0.475057
           -0.469831      -0.454968      -0.444877      -0.443314      -0.430924
           -0.420112      -0.402295      -0.397484      -0.385180      -0.367575
           -0.347393      -0.295934      -0.287219      -0.263797      -0.253170
           -0.249033      -0.245440      -0.233437      -0.227840      -0.192025
           -0.189239      -0.183902      -0.177132      -0.170970      -0.145457
           -0.143733      -0.141330      -0.137381      -0.132091      -0.128910
           -0.125821      -0.124981      -0.124498      -0.123389      -0.120751
           -0.120438      -0.120011      -0.119043      -0.116551      -0.114979
           -0.109375      -0.103814      -0.101843      -0.100453      -0.097329
           -0.096972      -0.095010      -0.093427      -0.091227      -0.088917
           -0.086492      -0.084881      -0.081573      -0.079229      -0.078550
           -0.075864      -0.074400      -0.073894

 **********************************************************************
 *SIRIUS* a direct, restricted step, second order MCSCF program       *
 **********************************************************************

 
     Date and time (Linux)  : Tue Sep 10 08:41:44 2019
     Host name              : node367.cluster                         

 Title lines from ".mol" input file:
     VHF_trans.xyz                                                           
     Hej Bendte                                                              

 Print level on unit LUPRI =   2 is   0
 Print level on unit LUW4  =   2 is   5

@    Restricted, closed shell Kohn-Sham DFT calculation.

@    Time-dependent Kohn-Sham DFT calculation (TD-DFT).
 Fock matrices are calculated directly and in parallel without use of integrals on disk.

 Initial molecular orbitals are obtained according to
 ".MOSTART EWMO  " input option

     Wave function specification
     ============================
@    Wave function type        --- KS-DFT ---
@    Number of closed shell electrons         142
@    Number of electrons in active shells       0
@    Total charge of the molecule               0

@    Spin multiplicity and 2 M_S                1         0
@    Total number of symmetries                 1 (point group: C1 )
@    Reference state symmetry                   1 (irrep name : A  )
 
     This is a DFT calculation of type: Camb3lyp
 CAM-B3LYP w/ alpha=0.190 beta=0.460 mu=0.330 VwnWeight=0.190 LypWeight=0.810

     Orbital specifications
     ======================
@    Abelian symmetry species          All |    1
@                                          |  A  
                                       --- |  ---
@    Occupied SCF orbitals              71 |   71
@    Secondary orbitals                527 |  527
@    Total number of orbitals          598 |  598
@    Number of basis functions         600 |  600

     Optimization information
     ========================
@    Number of configurations                 1
@    Number of orbital rotations          37417
     ------------------------------------------
@    Total number of variables            37418

     Maximum number of Fock   iterations      0
     Maximum number of DIIS   iterations     60
     Maximum number of QC-SCF iterations     60
     Threshold for SCF convergence     1.00D-05
 
     This is a DFT calculation of type: Camb3lyp
 CAM-B3LYP w/ alpha=0.190 beta=0.460 mu=0.330 VwnWeight=0.190 LypWeight=0.810

    INFORMATION: Switched to "new" integral transformation (from 1988 ;-) )
    because more than 255 basis functions.


 ***********************************************
 ***** DIIS acceleration of SCF iterations *****
 ***********************************************

 C1-DIIS algorithm; max error vectors =    8

 Iter      Total energy        Error norm    Delta(E)  DIIS dim.
 -----------------------------------------------------------------------------
   1  Screening settings (-IFTHRS, JTDIIS, DIFDEN, times)   -9    1    F  1.11D+03  1.11D+03
      K-S energy, electrons, error :    -87.148275304615 141.9998773078   -1.23D-04
@  1    -854.304637746        6.93562D+00   -8.54D+02    1
      Virial theorem: -V/T =      2.016892
@      MULPOP N      -1.35; N      -1.38; N      -0.46; C      -0.00; C       0.37; C       0.28; C       0.17; C       0.16; C       0.29; C       0.05; 
@             C      -1.00; C       1.01; C       0.57; C       1.36; C       1.40; C      -0.14; C       0.20; C       0.31; C       0.24; C       0.15; 
@             C       0.20; H      -0.30; H      -0.21; H      -0.26; H      -0.24; H      -0.22; H      -0.23; H      -0.25; H      -0.23; H      -0.27; 
   1  Level shift: doubly occupied orbital energies shifted by -2.00D-01
 -----------------------------------------------------------------------------
   2  Screening settings (-IFTHRS, JTDIIS, DIFDEN, times)   -9    2    F  1.11D+03  1.11D+03
      K-S energy, electrons, error :    -89.869595534895 141.9999342200   -6.58D-05
@  2    -855.693435478        5.57268D+00   -1.39D+00    2
      Virial theorem: -V/T =      1.997539
@      MULPOP N       1.34; N       1.43; N       0.25; C       2.36; C       0.55; C       0.03; C       0.42; C       0.34; C       0.08; C       1.13; 
@             C       0.98; C       2.04; C       0.04; C      -2.58; C      -2.71; C       0.68; C       1.18; C       1.22; C       0.05; C      -0.20; 
@             C       0.87; H      -1.08; H      -0.76; H      -0.94; H      -0.80; H      -0.73; H      -0.76; H      -0.83; H      -1.11; H      -1.05; 
   2  Level shift: doubly occupied orbital energies shifted by -2.00D-01
 -----------------------------------------------------------------------------
   3  Screening settings (-IFTHRS, JTDIIS, DIFDEN, times)   -9    3    F  1.11D+03  1.11D+03
      K-S energy, electrons, error :    -89.744664530632 141.9999379059   -6.21D-05
@  3    -857.344969175        1.68577D+00   -1.65D+00    3
      Virial theorem: -V/T =      2.001111
@      MULPOP N      -0.43; N      -0.42; N      -0.01; C       2.31; C       0.61; C       0.13; C       0.47; C       0.47; C      -0.01; C       1.35; 
@             C       1.43; C       1.73; C       0.15; C      -0.83; C      -0.92; C       1.00; C       1.17; C       1.17; C       0.07; C      -0.13; 
@             C       0.89; H      -1.15; H      -0.82; H      -1.03; H      -0.86; H      -0.79; H      -0.82; H      -0.91; H      -1.16; H      -1.12; 
   3  Level shift: doubly occupied orbital energies shifted by -1.00D-01
 -----------------------------------------------------------------------------
   4  Screening settings (-IFTHRS, JTDIIS, DIFDEN, times)  -10    4    F  1.12D+03  1.12D+03
      K-S energy, electrons, error :    -89.189752158902 141.9999346061   -6.54D-05
@  4    -857.490669707        4.41622D-01   -1.46D-01    4
      Virial theorem: -V/T =      2.006471
@      MULPOP N      -0.17; N      -0.15; N      -0.03; C       2.19; C       0.68; C       0.28; C       0.58; C       0.57; C       0.19; C       1.29; 
@             C       1.36; C       1.78; C       0.15; C      -1.16; C      -1.29; C       0.93; C       1.17; C       1.16; C       0.24; C       0.01; 
@             C       1.01; H      -1.18; H      -0.87; H      -1.09; H      -0.91; H      -0.84; H      -0.87; H      -0.96; H      -1.20; H      -1.16; 
   4  Level shift: doubly occupied orbital energies shifted by -5.00D-02
 -----------------------------------------------------------------------------
   5  Screening settings (-IFTHRS, JTDIIS, DIFDEN, times)  -10    5    F  1.12D+03  1.12D+03
      K-S energy, electrons, error :    -89.282032239527 141.9999356065   -6.44D-05
@  5    -857.503553874        1.64550D-01   -1.29D-02    5
      Virial theorem: -V/T =      2.005627
@      MULPOP N      -0.16; N      -0.16; N       0.00; C       2.18; C       0.65; C       0.26; C       0.57; C       0.55; C       0.15; C       1.34; 
@             C       1.49; C       1.64; C       0.14; C      -1.15; C      -1.26; C       0.97; C       1.20; C       1.14; C       0.21; C      -0.04; 
@             C       1.00; H      -1.17; H      -0.86; H      -1.09; H      -0.91; H      -0.83; H      -0.86; H      -0.95; H      -1.19; H      -1.16; 
   5  Level shift: doubly occupied orbital energies shifted by -2.50D-02
 -----------------------------------------------------------------------------
   6  Screening settings (-IFTHRS, JTDIIS, DIFDEN, times)  -11    6    F  1.12D+03  1.12D+03
      K-S energy, electrons, error :    -89.299848658573 141.9999357195   -6.43D-05
@  6    -857.505341396        6.89852D-02   -1.79D-03    6
      Virial theorem: -V/T =      2.005458
@      MULPOP N      -0.15; N      -0.14; N      -0.03; C       2.24; C       0.66; C       0.25; C       0.56; C       0.56; C       0.14; C       1.35; 
@             C       1.44; C       1.71; C       0.11; C      -1.19; C      -1.30; C       1.02; C       1.18; C       1.14; C       0.20; C      -0.04; 
@             C       1.00; H      -1.17; H      -0.86; H      -1.09; H      -0.91; H      -0.83; H      -0.86; H      -0.95; H      -1.19; H      -1.16; 
   6  Level shift: doubly occupied orbital energies shifted by -1.25D-02
 -----------------------------------------------------------------------------
   7  Screening settings (-IFTHRS, JTDIIS, DIFDEN, times)  -11    7    F  1.12D+03  1.12D+03
      K-S energy, electrons, error :    -89.295015525210 141.9999358035   -6.42D-05
@  7    -857.505680794        2.32151D-02   -3.39D-04    7
      Virial theorem: -V/T =      2.005506
@      MULPOP N      -0.15; N      -0.14; N      -0.02; C       2.21; C       0.65; C       0.26; C       0.56; C       0.56; C       0.16; C       1.34; 
@             C       1.46; C       1.67; C       0.13; C      -1.18; C      -1.29; C       1.02; C       1.18; C       1.13; C       0.21; C      -0.03; 
@             C       1.00; H      -1.17; H      -0.86; H      -1.09; H      -0.91; H      -0.84; H      -0.86; H      -0.95; H      -1.19; H      -1.15; 
 -----------------------------------------------------------------------------
   8  Screening settings (-IFTHRS, JTDIIS, DIFDEN, times)  -12    8    F  1.12D+03  1.12D+03
      K-S energy, electrons, error :    -89.294404086967 141.9999358118   -6.42D-05
@  8    -857.505732151        1.10670D-02   -5.14D-05    8
      Virial theorem: -V/T =      2.005514
@      MULPOP N      -0.15; N      -0.14; N      -0.03; C       2.20; C       0.66; C       0.26; C       0.56; C       0.56; C       0.15; C       1.35; 
@             C       1.46; C       1.67; C       0.14; C      -1.18; C      -1.28; C       1.03; C       1.18; C       1.13; C       0.20; C      -0.03; 
@             C       1.00; H      -1.17; H      -0.86; H      -1.09; H      -0.91; H      -0.83; H      -0.86; H      -0.95; H      -1.19; H      -1.15; 
 -----------------------------------------------------------------------------
   9  Screening settings (-IFTHRS, JTDIIS, DIFDEN, times)  -12    9    F  1.12D+03  1.13D+03
      K-S energy, electrons, error :    -89.295164685761 141.9999358003   -6.42D-05
@  9    -857.505744232        3.53383D-03   -1.21D-05    8
      Virial theorem: -V/T =      2.005507
@      MULPOP N      -0.15; N      -0.14; N      -0.03; C       2.21; C       0.65; C       0.26; C       0.56; C       0.56; C       0.15; C       1.34; 
@             C       1.46; C       1.67; C       0.14; C      -1.18; C      -1.28; C       1.03; C       1.17; C       1.13; C       0.20; C      -0.03; 
@             C       1.00; H      -1.17; H      -0.86; H      -1.09; H      -0.91; H      -0.83; H      -0.86; H      -0.95; H      -1.19; H      -1.15; 
 -----------------------------------------------------------------------------
  10  Screening settings (-IFTHRS, JTDIIS, DIFDEN, times)  -13   10    F  1.13D+03  1.13D+03
      K-S energy, electrons, error :    -89.295086758124 141.9999357963   -6.42D-05
@ 10    -857.505746781        2.00006D-03   -2.55D-06    8
      Virial theorem: -V/T =      2.005508
@      MULPOP N      -0.15; N      -0.14; N      -0.03; C       2.20; C       0.65; C       0.26; C       0.56; C       0.56; C       0.15; C       1.34; 
@             C       1.46; C       1.67; C       0.14; C      -1.18; C      -1.29; C       1.03; C       1.17; C       1.13; C       0.21; C      -0.03; 
@             C       1.00; H      -1.17; H      -0.86; H      -1.09; H      -0.91; H      -0.83; H      -0.86; H      -0.95; H      -1.19; H      -1.15; 
 -----------------------------------------------------------------------------
  11  Screening settings (-IFTHRS, JTDIIS, DIFDEN, times)  -13   11    F  1.13D+03  1.13D+03
      K-S energy, electrons, error :    -89.295141906002 141.9999358030   -6.42D-05
@ 11    -857.505747301        9.10101D-04   -5.20D-07    8
      Virial theorem: -V/T =      2.005507
@      MULPOP N      -0.15; N      -0.14; N      -0.03; C       2.20; C       0.65; C       0.26; C       0.56; C       0.56; C       0.15; C       1.34; 
@             C       1.46; C       1.67; C       0.14; C      -1.18; C      -1.29; C       1.03; C       1.17; C       1.13; C       0.21; C      -0.03; 
@             C       1.00; H      -1.17; H      -0.86; H      -1.09; H      -0.91; H      -0.83; H      -0.86; H      -0.95; H      -1.19; H      -1.15; 
 -----------------------------------------------------------------------------
  12  Screening settings (-IFTHRS, JTDIIS, DIFDEN, times)  -13   12    F  1.13D+03  1.13D+03
      K-S energy, electrons, error :    -89.295123460887 141.9999358021   -6.42D-05
@ 12    -857.505747470        4.13564D-04   -1.69D-07    8
      Virial theorem: -V/T =      2.005507
@      MULPOP N      -0.15; N      -0.14; N      -0.03; C       2.20; C       0.65; C       0.26; C       0.56; C       0.56; C       0.15; C       1.34; 
@             C       1.46; C       1.67; C       0.14; C      -1.18; C      -1.29; C       1.03; C       1.17; C       1.13; C       0.21; C      -0.03; 
@             C       1.00; H      -1.17; H      -0.86; H      -1.09; H      -0.91; H      -0.83; H      -0.86; H      -0.95; H      -1.19; H      -1.15; 
 -----------------------------------------------------------------------------
  13  Screening settings (-IFTHRS, JTDIIS, DIFDEN, times)  -13   13    F  1.13D+03  1.13D+03
      K-S energy, electrons, error :    -89.295069119481 141.9999358005   -6.42D-05
@ 13    -857.505747494        1.47078D-04   -2.44D-08    8
      Virial theorem: -V/T =      2.005508
@      MULPOP N      -0.15; N      -0.14; N      -0.03; C       2.20; C       0.65; C       0.26; C       0.56; C       0.56; C       0.15; C       1.34; 
@             C       1.46; C       1.67; C       0.14; C      -1.18; C      -1.29; C       1.03; C       1.17; C       1.13; C       0.21; C      -0.03; 
@             C       1.00; H      -1.17; H      -0.86; H      -1.09; H      -0.91; H      -0.83; H      -0.86; H      -0.95; H      -1.19; H      -1.15; 
 -----------------------------------------------------------------------------
  14  Screening settings (-IFTHRS, JTDIIS, DIFDEN, times)  -13   14    F  1.13D+03  1.13D+03
      K-S energy, electrons, error :    -89.295108812626 141.9999358004   -6.42D-05
@ 14    -857.505747496        8.37369D-05   -2.16D-09    8
      Virial theorem: -V/T =      2.005507
@      MULPOP N      -0.15; N      -0.14; N      -0.03; C       2.21; C       0.65; C       0.26; C       0.56; C       0.56; C       0.15; C       1.34; 
@             C       1.46; C       1.67; C       0.14; C      -1.18; C      -1.29; C       1.03; C       1.17; C       1.13; C       0.21; C      -0.03; 
@             C       1.00; H      -1.17; H      -0.86; H      -1.09; H      -0.91; H      -0.83; H      -0.86; H      -0.95; H      -1.19; H      -1.15; 
 -----------------------------------------------------------------------------
  15  Screening settings (-IFTHRS, JTDIIS, DIFDEN, times)  -13   15    F  1.13D+03  1.13D+03
      K-S energy, electrons, error :    -89.295111040370 141.9999358002   -6.42D-05
@ 15    -857.505747497        3.80243D-05   -7.36D-10    8
      Virial theorem: -V/T =      2.005507
@      MULPOP N      -0.15; N      -0.14; N      -0.03; C       2.21; C       0.65; C       0.26; C       0.56; C       0.56; C       0.15; C       1.34; 
@             C       1.46; C       1.67; C       0.14; C      -1.18; C      -1.29; C       1.03; C       1.17; C       1.13; C       0.21; C      -0.03; 
@             C       1.00; H      -1.17; H      -0.86; H      -1.09; H      -0.91; H      -0.83; H      -0.86; H      -0.95; H      -1.19; H      -1.15; 
 -----------------------------------------------------------------------------
  16  Screening settings (-IFTHRS, JTDIIS, DIFDEN, times)  -13   16    F  1.13D+03  1.13D+03
      K-S energy, electrons, error :    -89.295104734587 141.9999357999   -6.42D-05
@ 16    -857.505747497        1.52340D-05   -1.46D-10    8
      Virial theorem: -V/T =      2.005507
@      MULPOP N      -0.15; N      -0.14; N      -0.03; C       2.21; C       0.65; C       0.26; C       0.56; C       0.56; C       0.15; C       1.34; 
@             C       1.46; C       1.67; C       0.14; C      -1.18; C      -1.29; C       1.03; C       1.17; C       1.13; C       0.21; C      -0.03; 
@             C       1.00; H      -1.17; H      -0.86; H      -1.09; H      -0.91; H      -0.83; H      -0.86; H      -0.95; H      -1.19; H      -1.15; 
 -----------------------------------------------------------------------------
  17  Screening settings (-IFTHRS, JTDIIS, DIFDEN, times)  -13   17    F  1.13D+03  1.13D+03
      K-S energy, electrons, error :    -89.295104999758 141.9999357998   -6.42D-05
@ 17    -857.505747497        6.83955D-06    3.18D-12    8

@ *** DIIS converged in  17 iterations !
@     Converged SCF energy, gradient:   -857.505747497294    6.84D-06
    - total time used in SIRFCK :              0.00 seconds


 *** SCF orbital energy analysis ***

 Only the 20 lowest virtual orbital energies printed in each symmetry.

 Number of electrons :  142
 Orbital occupations :   71

 Sym       Kohn-Sham orbital energies

1 A     -14.42306592   -14.41984078   -14.41623004   -10.33978379   -10.33494092
        -10.31875006   -10.31678869   -10.31324324   -10.30451890   -10.29876150
        -10.29424208   -10.29262833   -10.29206102   -10.29118097   -10.29070648
        -10.29020737   -10.28672050   -10.28668845   -10.28657689   -10.28377342
        -10.28333083    -1.03335120    -1.00977738    -1.00077178    -0.97592460
         -0.95172793    -0.93254653    -0.89389817    -0.88195282    -0.86203031
         -0.85447805    -0.81457540    -0.77287450    -0.74919168    -0.71871068
         -0.70502821    -0.67781218    -0.66706244    -0.63344920    -0.62081011
         -0.61462852    -0.61110829    -0.58312840    -0.57334527    -0.54804482
         -0.54539079    -0.53475725    -0.52534982    -0.51564567    -0.51319290
         -0.49643607    -0.48618405    -0.47240761    -0.46441047    -0.46177431
         -0.45142540    -0.44890939    -0.44350011    -0.43987777    -0.43145551
         -0.42450478    -0.42153896    -0.41714142    -0.40988882    -0.40015161
         -0.36878261    -0.36776724    -0.35434837    -0.33231078    -0.31445705
         -0.24533973    -0.07377961    -0.04622607    -0.00585233    -0.00055443
          0.00774318     0.01034491     0.01222772     0.02057073     0.02437361
          0.03189469     0.03472644     0.03627843     0.04362397     0.04552959
          0.04972810     0.05285857     0.05618186     0.05998336     0.06265621
          0.07010037

    E(LUMO) :    -0.07377961 au (symmetry 1)
  - E(HOMO) :    -0.24533973 au (symmetry 1)
  ------------------------------------------
    gap     :     0.17156012 au

 --- Writing SIRIFC interface file

 CPU and wall time for SCF :   19501.434   19507.714


                       .-----------------------------------.
                       | --- Final results from SIRIUS --- |
                       `-----------------------------------'


@    Spin multiplicity:           1
@    Spatial symmetry:            1 ( irrep  A   in C1  )
@    Total charge of molecule:    0

@    Final DFT energy:           -857.505747497294                 
@    Nuclear repulsion:          1474.303175433221
@    Electronic energy:         -2331.808922930515

@    Final gradient norm:           0.000006839546

 
     Date and time (Linux)  : Tue Sep 10 14:06:52 2019
     Host name              : node367.cluster                         

File label for MO orbitals:  10Sep19   FOCKDIIS

 (Only coefficients > 0.0100 are printed.)

 Molecular orbitals for symmetry species 1  (A  )
 ------------------------------------------------

    Orbital        62       63       64       65       66       67       68
   2 N   :1s    -0.0284  -0.0227   0.0337   0.0164   0.0006  -0.0046   0.0109
   3 N   :1s    -0.0221  -0.0123   0.0348   0.0454   0.0004   0.0191  -0.0128
   4 N   :1s    -0.0781  -0.0450   0.1231   0.1032   0.0115   0.0566  -0.0337
   5 N   :2px    0.3302   0.2562   0.2163   0.2430  -0.0100  -0.0277  -0.1261
   6 N   :2py   -0.0731   0.0578  -0.1456  -0.1222  -0.0012   0.0375   0.0343
   7 N   :2pz    0.3397  -0.2287  -0.0237  -0.0482   0.0204  -0.2807   0.0500
   8 N   :2px   -0.0424  -0.0314  -0.0209  -0.0256   0.0012   0.0041   0.0135
   9 N   :2py   -0.0042  -0.0204   0.0365   0.0298   0.0004   0.0031  -0.0087
  10 N   :2pz   -0.0412   0.0238   0.0068   0.0093  -0.0025   0.0352  -0.0056
  11 N   :2px    0.0084   0.0067   0.0087   0.0107  -0.0039   0.0014  -0.0091
  12 N   :2py   -0.0206  -0.0064   0.0279   0.0172   0.0044   0.0188  -0.0062
  13 N   :2pz    0.0065  -0.0158   0.0033   0.0089   0.0001  -0.0158  -0.0005
  14 N   :3d2-   0.0134   0.0115   0.0091   0.0100  -0.0004  -0.0004  -0.0047
  15 N   :3d1-   0.0146  -0.0100  -0.0019  -0.0031   0.0008  -0.0098   0.0027
  25 N   :1s    -0.0369  -0.0242  -0.0161  -0.0087   0.0011  -0.0018   0.0019
  26 N   :1s    -0.0272  -0.0163  -0.0209  -0.0177   0.0007   0.0029   0.0028
  27 N   :1s    -0.0782  -0.0872  -0.0575  -0.0508   0.0146  -0.0003   0.0191
  28 N   :2px   -0.1094   0.0056  -0.1395  -0.0524   0.0003  -0.0392   0.0012
  29 N   :2py   -0.1175  -0.1950   0.4886   0.1901   0.0080  -0.0002   0.0325
  30 N   :2pz   -0.4124   0.1805   0.0356   0.1533   0.0031  -0.2646  -0.0661
  31 N   :2px    0.0256   0.0121   0.0253   0.0150  -0.0007   0.0113  -0.0032
  32 N   :2py    0.0185   0.0232  -0.0517  -0.0195  -0.0009   0.0022  -0.0042
  33 N   :2pz    0.0466  -0.0233  -0.0043  -0.0190  -0.0003   0.0316   0.0099
  34 N   :2px    0.0143   0.0181   0.0109   0.0116  -0.0030  -0.0014  -0.0060
  35 N   :2py   -0.0009   0.0088   0.0178   0.0036  -0.0011   0.0056   0.0022
  36 N   :2pz   -0.0152   0.0031   0.0001   0.0060   0.0018  -0.0158   0.0004
  37 N   :3d2-   0.0056   0.0082  -0.0214  -0.0084  -0.0003   0.0007  -0.0010
  40 N   :3d1+   0.0192  -0.0084  -0.0024  -0.0068  -0.0001   0.0096   0.0022
  41 N   :3d2+   0.0030  -0.0030   0.0104   0.0036   0.0001   0.0012   0.0003
  48 N   :1s    -0.0096   0.0009   0.0280  -0.0392   0.0204  -0.1018   0.1032
  49 N   :1s     0.0057   0.0065   0.0099   0.0123  -0.0057  -0.0269   0.0242
  50 N   :1s    -0.0455  -0.1053   0.0619   0.0106   0.0992  -0.0960   0.1949
  51 N   :2px   -0.0049   0.0322  -0.1002   0.2158  -0.0481   0.1090  -0.3009
  52 N   :2py   -0.0127  -0.0753  -0.0247   0.0033   0.0028  -0.1488   0.1354
  53 N   :2pz   -0.0159   0.0090   0.0574  -0.1616   0.0281  -0.1749   0.4429
  54 N   :2px    0.0119   0.0018   0.0182  -0.0299   0.0070  -0.0074   0.0137
  55 N   :2py    0.0053   0.0224   0.0089  -0.0081   0.0001   0.0211  -0.0134
  56 N   :2pz   -0.0043  -0.0130   0.0086  -0.0138   0.0070  -0.0000   0.0046
  57 N   :2px   -0.0002  -0.0043   0.0005   0.0221  -0.0002   0.0274  -0.0363
  58 N   :2py   -0.0065  -0.0167   0.0067  -0.0049   0.0113  -0.0213   0.0308
  59 N   :2pz   -0.0004  -0.0036  -0.0062  -0.0290  -0.0143  -0.0219   0.0538
  71 C   :1s     0.0027   0.0077   0.0008  -0.0126  -0.0044   0.0307  -0.0265
  72 C   :1s     0.0579   0.1084  -0.1338  -0.0473   0.0372  -0.2068   0.0747
  73 C   :1s    -0.2882  -0.4432  -0.1937   0.2091  -0.0476   0.0620  -0.1018
  74 C   :2px    0.0301  -0.0643  -0.1008   0.0165  -0.0127   0.0706  -0.1240
  75 C   :2py   -0.0274  -0.1605   0.0129  -0.1534  -0.0065  -0.0570  -0.1848
  76 C   :2pz    0.0094   0.1322   0.1289  -0.2370   0.0143   0.0129  -0.2049
  77 C   :2px   -0.0912  -0.1878   0.0059   0.0180  -0.0519  -0.1892   0.0562
  78 C   :2py    0.0819   0.1698  -0.0292   0.0756  -0.0372   0.0665  -0.1346
  79 C   :2pz   -0.0563  -0.1337   0.0305  -0.0255   0.0497  -0.0124   0.1755
  80 C   :2px   -0.0117   0.1351   0.1104  -0.2402  -0.0427  -0.1591   0.1472
  81 C   :2py    0.0638   0.3437   0.1450  -0.1163   0.0441   0.1139  -0.1015
  82 C   :2pz   -0.0921  -0.4533  -0.1832   0.1475  -0.1094  -0.1114   0.0767
  85 C   :3d0   -0.0010  -0.0062  -0.0022   0.0011   0.0156   0.0007   0.0003
  87 C   :3d2+  -0.0002   0.0065   0.0069  -0.0091   0.0106   0.0001   0.0068
  88 C   :3d2-   0.0288  -0.0136   0.0093   0.0161   0.0069   0.0389   0.0139
  89 C   :3d1-  -0.0256  -0.1316   0.0345   0.0020   0.0082  -0.0457   0.0751
  90 C   :3d0    0.0352   0.1086  -0.0335   0.0073   0.0143   0.0505  -0.0649
  91 C   :3d1+  -0.0182   0.0602  -0.0091  -0.0213  -0.0244  -0.0213  -0.0298
  92 C   :3d2+  -0.0322  -0.1921   0.0535   0.0118   0.0165  -0.0417   0.1067
  94 C   :1s     0.0030   0.0425   0.0092   0.0232   0.0100   0.0193  -0.0123
  95 C   :1s     0.0176   0.2091  -0.0028  -0.0771  -0.0098  -0.0460  -0.0561
  96 C   :1s     0.1445   0.7542   0.4972  -0.5646   0.1023  -0.1458   0.1732
  97 C   :2px   -0.0249   0.0132   0.0393   0.0117   0.0245  -0.0104  -0.0166
  98 C   :2py    0.0133   0.1251   0.0792  -0.1181   0.3442  -0.0415  -0.1415
  99 C   :2pz   -0.0025  -0.1757  -0.1469   0.1177   0.1932   0.0144  -0.2301
 100 C   :2px   -0.0343   0.0464   0.0320  -0.0309  -0.0782  -0.0595  -0.0779
 101 C   :2py    0.0054   0.0051  -0.0674   0.0525  -0.0438   0.0259  -0.0479
 102 C   :2pz   -0.0010   0.0054   0.0880  -0.0604   0.0029  -0.0193   0.1060
 103 C   :2px    0.0270  -0.0478  -0.0905   0.1021  -0.0308   0.0005  -0.0713
 104 C   :2py    0.0117   0.0450   0.0341  -0.0538   0.0266  -0.0425   0.0275
 105 C   :2pz   -0.0210  -0.0458  -0.0400   0.0526   0.0243   0.0436  -0.0486
 106 C   :3d2-  -0.0015   0.0014   0.0072  -0.0110  -0.0131  -0.0008  -0.0051
 111 C   :3d2-  -0.0046  -0.0008  -0.0210   0.0173  -0.0294   0.0008  -0.0385
 112 C   :3d1-  -0.0066  -0.0565  -0.0176   0.0280  -0.0012  -0.0020   0.0036
 113 C   :3d0    0.0095   0.0777   0.0183  -0.0317   0.0046   0.0020  -0.0052
 114 C   :3d1+   0.0075   0.0366   0.0412  -0.0517   0.0220  -0.0106   0.0490
 115 C   :3d2+  -0.0138  -0.0952  -0.0252   0.0397  -0.0073  -0.0080   0.0052
 117 C   :1s     0.0025  -0.0138  -0.0068  -0.0138   0.0019  -0.0028   0.0012
 118 C   :1s    -0.0089   0.0269  -0.0268   0.0131  -0.0281  -0.0039  -0.0565
 119 C   :1s    -0.0374  -0.4882  -0.4270   0.4089  -0.0629   0.0965  -0.1483
 120 C   :2px    0.0299   0.0536  -0.0088  -0.0239   0.0499   0.0131   0.0050
 121 C   :2py    0.0147  -0.0599  -0.1304   0.1762   0.3717   0.0050  -0.0511
 122 C   :2pz    0.0103   0.1549   0.0685  -0.0204   0.2573  -0.0121   0.0120
 123 C   :2px   -0.0282   0.0288   0.0447  -0.0132  -0.0515  -0.0284  -0.0412
 124 C   :2py   -0.0042  -0.0080   0.0210  -0.0223  -0.0227  -0.0046   0.0285
 125 C   :2pz    0.0059   0.0073  -0.0183  -0.0006  -0.0421   0.0011  -0.0309
 126 C   :2px   -0.0062  -0.0068  -0.0337   0.0108  -0.0299  -0.0142  -0.0178
 127 C   :2py   -0.0078  -0.0143  -0.0036   0.0103   0.0243   0.0188  -0.0046
 128 C   :2pz    0.0157   0.0229   0.0086  -0.0064  -0.0031  -0.0181  -0.0010
 131 C   :3d0   -0.0015  -0.0068   0.0003  -0.0048  -0.0020  -0.0015  -0.0101
 132 C   :3d1+   0.0008  -0.0078  -0.0079   0.0049   0.0063   0.0015  -0.0113
 134 C   :3d2-   0.0016  -0.0317  -0.0259   0.0222  -0.0055   0.0028  -0.0120
 135 C   :3d1-  -0.0063  -0.0177  -0.0070   0.0128  -0.0122  -0.0005  -0.0149
 136 C   :3d0    0.0068   0.0143   0.0021  -0.0158   0.0110   0.0001   0.0055
 137 C   :3d1+  -0.0008   0.0593   0.0463  -0.0483   0.0123  -0.0103   0.0168
 138 C   :3d2+  -0.0094  -0.0223  -0.0050   0.0151  -0.0125  -0.0028  -0.0160
 140 C   :1s    -0.0034  -0.0458  -0.0287   0.0266   0.0025   0.0038  -0.0194
 141 C   :1s    -0.0454  -0.1427  -0.0535   0.0725  -0.0300  -0.0232  -0.0169
 142 C   :1s    -0.0150  -0.0640   0.0660  -0.0378  -0.0006  -0.0189   0.0620
 143 C   :2px   -0.0302  -0.1720  -0.0666   0.0550  -0.0279  -0.0113  -0.0360
 144 C   :2py    0.0201   0.1073  -0.0351   0.1695   0.1302   0.0233   0.2561
 145 C   :2pz    0.0254  -0.0286  -0.1453   0.2412   0.0912   0.0446   0.1488
 146 C   :2px    0.0072   0.0719   0.0268  -0.0201   0.0038   0.0096   0.0013
 147 C   :2py   -0.0050  -0.0124   0.0048  -0.0219   0.0120  -0.0060   0.0045
 148 C   :2pz    0.0004  -0.0019   0.0081  -0.0153  -0.0456   0.0002  -0.0576
 149 C   :2px    0.0061   0.0293   0.0274  -0.0159   0.0073  -0.0029   0.0022
 150 C   :2py   -0.0078  -0.0788  -0.0349   0.0441   0.0135   0.0173   0.0206
 151 C   :2pz    0.0110   0.1086   0.0426  -0.0486  -0.0152  -0.0248  -0.0010
 154 C   :3d0   -0.0017  -0.0066  -0.0006  -0.0021   0.0132  -0.0023  -0.0098
 156 C   :3d2+   0.0011   0.0062   0.0033  -0.0052   0.0110   0.0001  -0.0052
 157 C   :3d2-  -0.0004  -0.0114  -0.0120   0.0102   0.0048   0.0022   0.0010
 158 C   :3d1-  -0.0054  -0.0184  -0.0045   0.0063  -0.0007   0.0003  -0.0028
 159 C   :3d0    0.0044   0.0223   0.0085  -0.0126   0.0092  -0.0030   0.0002
 161 C   :3d2+  -0.0053  -0.0196  -0.0044   0.0032  -0.0018   0.0018  -0.0036
 163 C   :1s     0.0019   0.0448   0.0297  -0.0244  -0.0101   0.0159   0.0053
 164 C   :1s    -0.0160   0.0234   0.0674  -0.0391   0.0095   0.0194   0.0273
 165 C   :1s    -0.0335   0.0175   0.0109  -0.0618  -0.0145  -0.0546   0.0578
 166 C   :2px    0.0251   0.1836   0.0883  -0.0801   0.0219   0.0422  -0.0028
 167 C   :2py    0.0364   0.0408  -0.1226   0.2434  -0.1166   0.0469   0.2402
 168 C   :2pz    0.0111   0.0862  -0.0133   0.1215  -0.0951   0.0233   0.2108
 169 C   :2px   -0.0297  -0.1003  -0.0268   0.0357   0.0275  -0.0261   0.0470
 170 C   :2py   -0.0065   0.0179   0.0366  -0.0475   0.0263   0.0063  -0.0003
 171 C   :2pz    0.0028  -0.0372  -0.0224   0.0058  -0.0051  -0.0151  -0.0391
 172 C   :2px   -0.0260  -0.1382  -0.0446   0.0384   0.0106   0.0137   0.0380
 173 C   :2py   -0.0112  -0.0436  -0.0043   0.0214   0.0092   0.0136   0.0297
 174 C   :2pz    0.0157   0.0533  -0.0030  -0.0034  -0.0065  -0.0058  -0.0041
 175 C   :3d2-   0.0001   0.0032   0.0032  -0.0040  -0.0113  -0.0004  -0.0021
 178 C   :3d1+   0.0003  -0.0030  -0.0032   0.0024  -0.0129  -0.0003  -0.0037
 180 C   :3d2-   0.0043  -0.0116  -0.0114   0.0096  -0.0092   0.0106  -0.0118
 181 C   :3d1-  -0.0075  -0.0196  -0.0042   0.0059  -0.0002  -0.0040   0.0067
 182 C   :3d0    0.0079   0.0275   0.0110  -0.0121   0.0023   0.0051   0.0026
 183 C   :3d1+  -0.0048   0.0080   0.0118  -0.0099   0.0011  -0.0136   0.0067
 184 C   :3d2+  -0.0104  -0.0276  -0.0088   0.0107   0.0041  -0.0066   0.0103
 186 C   :1s     0.0041   0.0195   0.0044  -0.0053  -0.0009  -0.0117  -0.0114
 187 C   :1s    -0.0170  -0.1751   0.0481  -0.0008   0.0212  -0.0061   0.0942
 188 C   :1s     0.1745   0.7046   0.2611  -0.1430   0.1517   0.1791  -0.0863
 189 C   :2px   -0.0211  -0.1688  -0.0840   0.0676  -0.0022  -0.0400  -0.0259
 190 C   :2py   -0.0002  -0.0333  -0.0443   0.0787  -0.3316  -0.0076   0.0311
 191 C   :2pz    0.0355   0.1093  -0.0263   0.0677  -0.3089   0.0164   0.0122
 192 C   :2px   -0.0444  -0.1613  -0.0087   0.0357   0.0370  -0.0502   0.0929
 193 C   :2py    0.0221   0.1070  -0.0207   0.0009   0.0301  -0.0185  -0.0425
 194 C   :2pz   -0.0304  -0.1334   0.0226  -0.0086   0.0333   0.0184   0.0262
 195 C   :2px   -0.0246  -0.0270   0.0254  -0.0159   0.0192   0.0062   0.0593
 196 C   :2py   -0.0002  -0.0292  -0.0160  -0.0014  -0.0455  -0.0205  -0.0047
 197 C   :2pz   -0.0063   0.0099   0.0134  -0.0048  -0.0059   0.0092  -0.0045
 198 C   :3d2-  -0.0008   0.0015   0.0059  -0.0106  -0.0040  -0.0016  -0.0114
 201 C   :3d1+  -0.0002  -0.0046  -0.0010  -0.0035  -0.0052  -0.0013  -0.0105
 202 C   :3d2+   0.0019   0.0110   0.0036  -0.0022  -0.0051   0.0042   0.0001
 203 C   :3d2-   0.0153   0.0346  -0.0080  -0.0008  -0.0071   0.0071  -0.0311
 204 C   :3d1-  -0.0041  -0.0268  -0.0189   0.0127  -0.0029  -0.0257  -0.0046
 205 C   :3d0    0.0027   0.0226   0.0154  -0.0069   0.0040   0.0244  -0.0005
 206 C   :3d1+  -0.0152  -0.0462   0.0037   0.0023   0.0036  -0.0113   0.0111
 207 C   :3d2+  -0.0058  -0.0406  -0.0327   0.0234  -0.0095  -0.0421  -0.0090
 209 C   :1s     0.0039  -0.0331  -0.0299   0.0178  -0.0183   0.0324   0.0047
 210 C   :1s    -0.0281  -0.2565   0.0399   0.0017   0.0028  -0.0693   0.1197
 211 C   :1s    -0.0936  -0.8799  -0.3943   0.2403  -0.2291  -0.2846   0.1067
 212 C   :2px    0.0138   0.1606   0.0976  -0.0870   0.0043   0.0837   0.0244
 213 C   :2py    0.0236   0.1323   0.0548  -0.0802  -0.2752   0.0136  -0.1431
 214 C   :2pz   -0.0087  -0.1158  -0.0441  -0.0078  -0.2886  -0.0520  -0.1296
 215 C   :2px   -0.0352  -0.2126  -0.0458   0.0443   0.0046  -0.0433   0.0254
 216 C   :2py    0.0729   0.2080  -0.0612   0.0182  -0.0009   0.0582  -0.1323
 217 C   :2pz   -0.0706  -0.2154   0.0647  -0.0041   0.0652  -0.0422   0.1729
 218 C   :2px    0.0859   0.2341   0.0728  -0.0028   0.1228   0.1447  -0.0742
 219 C   :2py   -0.0323  -0.0065  -0.0175   0.0188   0.0067   0.0137  -0.0267
 220 C   :2pz    0.0476   0.0528   0.0329  -0.0112   0.0308   0.0041   0.0350
 226 C   :3d2-  -0.0099  -0.1084  -0.0137   0.0307   0.0140  -0.0182   0.0208
 227 C   :3d1-   0.0143   0.0076  -0.0463   0.0273  -0.0068  -0.0356  -0.0295
 228 C   :3d0   -0.0065  -0.0230   0.0366  -0.0169   0.0146   0.0354   0.0148
 229 C   :3d1+   0.0063   0.1051   0.0079  -0.0233  -0.0060   0.0184  -0.0311
 230 C   :3d2+   0.0171   0.0213  -0.0672   0.0351  -0.0043  -0.0464  -0.0488
 232 C   :1s     0.0080   0.0070   0.0031  -0.0382   0.0006  -0.0394   0.0083
 233 C   :1s     0.1053   0.4036  -0.1004  -0.0128  -0.0142   0.2136  -0.1470
 234 C   :1s    -0.1829  -0.1335  -0.0380   0.1576   0.1184   0.0519  -0.0007
 235 C   :2px   -0.0775  -0.0670  -0.0149   0.0014   0.0012   0.0474   0.0283
 236 C   :2py    0.0760   0.0673  -0.0842  -0.0345  -0.0028  -0.0840  -0.0481
 237 C   :2pz    0.0147   0.0476  -0.0092  -0.0625  -0.0058   0.2298   0.0598
 238 C   :2px    0.0287  -0.1484   0.0321  -0.0547   0.0083  -0.1829   0.0934
 239 C   :2py   -0.0117   0.1456   0.0319   0.0127   0.0226   0.1180   0.0362
 240 C   :2pz   -0.0035   0.0639   0.0013   0.0081   0.0064   0.0109  -0.0190
 241 C   :2px   -0.0440  -0.2788  -0.0798   0.0441   0.0472  -0.0394  -0.0297
 242 C   :2py    0.0433   0.0114  -0.0897   0.0017   0.0458  -0.0060   0.0077
 243 C   :2pz    0.0123  -0.0152  -0.0254   0.0389  -0.0036  -0.0066   0.0111
 244 C   :3d2-  -0.0177  -0.0173   0.0106  -0.0027   0.0005   0.0028   0.0046
 245 C   :3d1-  -0.0113   0.0088   0.0007   0.0003  -0.0004   0.0135  -0.0009
 247 C   :3d1+  -0.0183   0.0034   0.0005   0.0078  -0.0000  -0.0127  -0.0024
 248 C   :3d2+  -0.0050   0.0044  -0.0141  -0.0130  -0.0001  -0.0036   0.0048
 249 C   :3d2-  -0.0004  -0.0818  -0.0037  -0.0235  -0.0043  -0.0712   0.0044
 250 C   :3d1-  -0.0070   0.0460  -0.0048  -0.0043  -0.0024   0.0298  -0.0005
 251 C   :3d0   -0.0017   0.0139   0.0044  -0.0037  -0.0005   0.0166   0.0032
 252 C   :3d1+  -0.0117   0.0172  -0.0135  -0.0058  -0.0032  -0.0142  -0.0065
 253 C   :3d2+   0.0024   0.0381  -0.0606   0.0362  -0.0044  -0.0361  -0.0572
 255 C   :1s     0.0369   0.0177   0.0014  -0.0099   0.0018  -0.0245   0.0431
 256 C   :1s    -0.0471  -0.1668  -0.0138  -0.0746  -0.0015  -0.0266   0.0447
 257 C   :1s    -0.0001  -0.1081  -0.0444   0.0285  -0.1374   0.0582  -0.1301
 258 C   :2px    0.0704   0.0274  -0.1011   0.0170  -0.0100   0.1362  -0.1123
 259 C   :2py   -0.1084  -0.1644  -0.0174   0.1165  -0.0024  -0.0084  -0.0612
 260 C   :2pz   -0.0494  -0.0271   0.0610  -0.1382   0.0012   0.3784   0.0940
 261 C   :2px   -0.0184  -0.1860  -0.0807  -0.0122  -0.0339  -0.2344   0.1075
 262 C   :2py   -0.0293   0.0702  -0.0521  -0.0133  -0.0240   0.0763   0.0842
 263 C   :2pz   -0.0121   0.0465   0.0346  -0.0385   0.0173   0.0139   0.0054
 264 C   :2px    0.0749   0.1611   0.1250  -0.2594  -0.1202   0.0240   0.0917
 265 C   :2py    0.0024  -0.0572  -0.1553  -0.0610  -0.1582  -0.1372   0.0449
 266 C   :2pz    0.0070   0.1214  -0.0133  -0.0706   0.0041  -0.0050   0.0379
 272 C   :3d2-   0.0832   0.2722  -0.0949   0.0232  -0.0150   0.1293  -0.1209
 273 C   :3d1-  -0.0500  -0.1504   0.0901  -0.0561   0.0182  -0.0428   0.1016
 274 C   :3d0    0.0134   0.0090   0.0018  -0.0204   0.0039  -0.0183   0.0025
 275 C   :3d1+  -0.0035  -0.0295   0.0171  -0.0085   0.0029   0.0215   0.0349
 276 C   :3d2+  -0.0031  -0.0126  -0.0045   0.0811  -0.0094   0.0015  -0.1351
 278 C   :1s     0.0059   0.0094   0.0057   0.0060   0.0028   0.0354  -0.0386
 279 C   :1s     0.0776  -0.0303   0.0083  -0.0367   0.0181   0.0378   0.1060
 280 C   :1s     0.2269   0.5274   0.1222  -0.2875  -0.1303   0.1978  -0.1242
 281 C   :2px   -0.0403  -0.0273   0.0964  -0.0707   0.0039  -0.0177   0.0940
 282 C   :2py   -0.0155  -0.0067   0.0934  -0.2369   0.0170   0.0255   0.1023
 283 C   :2pz   -0.0232  -0.0643   0.0746  -0.2193   0.0100  -0.0080   0.0047
 284 C   :2px   -0.1015  -0.2331  -0.0567  -0.0277  -0.0219  -0.2215   0.1493
 285 C   :2py    0.0886   0.2435  -0.0866   0.0225  -0.0102   0.0875  -0.1103
 286 C   :2pz   -0.0227  -0.1052   0.0397   0.0268   0.0039  -0.0059   0.0397
 287 C   :2px   -0.0759  -0.3848  -0.2058   0.1524  -0.1138  -0.1397  -0.0045
 288 C   :2py    0.0227   0.0610   0.0554  -0.0190   0.0527   0.0121   0.0772
 289 C   :2pz    0.0412   0.1750   0.0822  -0.0533   0.0381   0.0707  -0.0980
 290 C   :3d2-  -0.0032  -0.0024   0.0059  -0.0017   0.0017  -0.0055   0.0183
 292 C   :3d0   -0.0013  -0.0040  -0.0017   0.0018   0.0011  -0.0139   0.0152
 293 C   :3d1+  -0.0004  -0.0015  -0.0063   0.0097  -0.0021   0.0155  -0.0030
 294 C   :3d2+   0.0029   0.0093   0.0039  -0.0062   0.0018   0.0025   0.0197
 295 C   :3d2-   0.0365   0.0172  -0.0347   0.0008   0.0011  -0.0453   0.0389
 296 C   :3d1-  -0.0052  -0.0520   0.0217   0.0213  -0.0090  -0.0003  -0.0093
 297 C   :3d0   -0.0008   0.0279  -0.0176  -0.0108  -0.0007  -0.0122   0.0145
 298 C   :3d1+  -0.0016   0.0448   0.0106   0.0064   0.0059   0.0807  -0.0440
 299 C   :3d2+  -0.0226  -0.1193   0.0522   0.0435  -0.0206  -0.0296   0.0413
 301 C   :1s    -0.0181  -0.0227   0.0503   0.0087   0.0026   0.0113   0.0176
 302 C   :1s     0.0161   0.0988  -0.0518   0.0229   0.0122   0.0048  -0.0126
 303 C   :1s     0.1856   0.0654  -0.2952  -0.2046  -0.0065  -0.1590   0.0906
 304 C   :2px    0.2788   0.2052   0.2429   0.2475  -0.0078   0.0042  -0.0989
 305 C   :2py   -0.2051  -0.0826   0.0640   0.0187   0.0004   0.0682   0.0110
 306 C   :2pz    0.2956  -0.2401   0.0195  -0.0240   0.0157  -0.1741   0.0515
 307 C   :2px   -0.0395  -0.0305  -0.0586  -0.0340   0.0007  -0.0222  -0.0014
 308 C   :2py    0.0370   0.0599  -0.0226   0.0306   0.0103   0.0090  -0.0044
 309 C   :2pz   -0.0433   0.0744  -0.0158   0.0148  -0.0032   0.0291  -0.0171
 310 C   :2px    0.0096   0.0156   0.0198   0.0334   0.0074  -0.0007  -0.0080
 311 C   :2py    0.0115   0.0031  -0.0394  -0.0196  -0.0075  -0.0216   0.0069
 312 C   :2pz    0.0246   0.0128   0.0014  -0.0319   0.0032  -0.0052   0.0133
 313 C   :3d2-  -0.0154  -0.0133  -0.0092  -0.0124   0.0007   0.0013   0.0085
 314 C   :3d1-  -0.0128   0.0126   0.0006  -0.0004  -0.0011   0.0200   0.0001
 317 C   :3d2+  -0.0105  -0.0032  -0.0062  -0.0035  -0.0002   0.0070   0.0002
 318 C   :3d2-  -0.0132  -0.0140  -0.0209  -0.0198   0.0004  -0.0102   0.0054
 319 C   :3d1-  -0.0106   0.0195  -0.0034   0.0035  -0.0025   0.0221  -0.0011
 322 C   :3d2+  -0.0054   0.0022  -0.0101  -0.0044  -0.0024   0.0054  -0.0041
 324 C   :1s    -0.0104  -0.0188  -0.0112  -0.0202   0.0014  -0.0261   0.0187
 325 C   :1s    -0.0083   0.0603   0.0626   0.0256  -0.0013   0.1434   0.0092
 326 C   :1s     0.1432   0.3699   0.1543   0.0890  -0.0911   0.0411  -0.0439
 327 C   :2px    0.0477   0.1155  -0.0489   0.0184  -0.0035   0.0068  -0.0345
 328 C   :2py   -0.0788  -0.1635   0.4702   0.1850   0.0065  -0.0050   0.0110
 329 C   :2pz   -0.4200   0.1632   0.0244   0.1225   0.0013  -0.1785  -0.0345
 330 C   :2px    0.0005  -0.0528  -0.0078  -0.0170   0.0008  -0.0731   0.0090
 331 C   :2py    0.0118   0.0508  -0.0938  -0.0183  -0.0011  -0.0034  -0.0092
 332 C   :2pz    0.0630  -0.0432   0.0110  -0.0112   0.0023   0.0289   0.0127
 333 C   :2px   -0.0125  -0.0176  -0.0207  -0.0181   0.0087  -0.0048   0.0121
 334 C   :2py   -0.0073  -0.0609   0.0203   0.0392   0.0066  -0.0192  -0.0101
 335 C   :2pz   -0.0229   0.0139   0.0026   0.0070  -0.0038  -0.0050  -0.0164
 336 C   :3d2-  -0.0081  -0.0107   0.0239   0.0099   0.0005   0.0012   0.0029
 339 C   :3d1+  -0.0190   0.0063   0.0020   0.0087   0.0003  -0.0206  -0.0051
 340 C   :3d2+   0.0003   0.0050  -0.0101  -0.0026  -0.0001  -0.0048  -0.0020
 341 C   :3d2-  -0.0075  -0.0187   0.0285   0.0090   0.0004  -0.0023   0.0042
 344 C   :3d1+  -0.0145   0.0171  -0.0065   0.0037  -0.0009  -0.0210  -0.0123
 347 C   :1s    -0.0005  -0.0157  -0.0267   0.0291   0.0019   0.0095  -0.0148
 348 C   :1s     0.0091  -0.1590  -0.0193   0.0377  -0.0006  -0.0385  -0.0652
 349 C   :1s    -0.1898  -0.1807   0.0178   0.3429   0.2456   0.0445  -0.1601
 350 C   :2px    0.0160  -0.0119   0.0410  -0.0636   0.0098   0.2811   0.0592
 351 C   :2py    0.0666   0.1109   0.0357  -0.1034   0.0061  -0.1052   0.0481
 352 C   :2pz    0.0235   0.1023  -0.0804   0.0325   0.0142   0.0795  -0.0027
 353 C   :2px   -0.0029  -0.1021  -0.0178   0.0679   0.0375  -0.0783   0.1097
 354 C   :2py   -0.0318  -0.0353  -0.0647  -0.0219  -0.0148   0.0660   0.0993
 355 C   :2pz   -0.0575   0.0488   0.0339  -0.1311  -0.0512   0.0775  -0.0465
 356 C   :2px   -0.0155   0.1123   0.0540  -0.0841   0.0118   0.1023   0.0370
 357 C   :2py    0.0150   0.0151  -0.1278   0.0900  -0.1237   0.0226  -0.0754
 358 C   :2pz   -0.0030  -0.1340  -0.1514   0.2164   0.0297  -0.0304  -0.1184
 360 C   :3d1-   0.0024   0.0046  -0.0051   0.0054  -0.0005  -0.0132  -0.0055
 364 C   :3d2-   0.0713   0.1174  -0.0808   0.0650  -0.0097   0.0100  -0.0858
 365 C   :3d1-  -0.0841  -0.1476   0.1382  -0.1169   0.0113  -0.0134   0.0884
 366 C   :3d0   -0.0414  -0.0631  -0.0175   0.0179   0.0001  -0.0007   0.0261
 367 C   :3d1+   0.0095   0.0040   0.0423  -0.0274   0.0101  -0.0267   0.0078
 368 C   :3d2+   0.0035   0.0342  -0.0550   0.0158  -0.0219   0.0173  -0.0167
 370 C   :1s    -0.0097   0.0041  -0.0163  -0.0289   0.0004   0.0317   0.0185
 371 C   :1s    -0.0493  -0.1163   0.1488  -0.1665  -0.0013  -0.0087   0.0595
 372 C   :1s     0.0568  -0.2696   0.1805   0.0227   0.0645   0.1216   0.0446
 373 C   :2px   -0.0106   0.0339  -0.0284   0.0309  -0.0281   0.0201  -0.0720
 374 C   :2py   -0.0226  -0.1198   0.0277   0.0890   0.0071  -0.0465  -0.0241
 375 C   :2pz    0.0135  -0.0970   0.1257  -0.0374  -0.0151   0.0753   0.0056
 376 C   :2px    0.0419  -0.0190  -0.0702   0.0813   0.0169  -0.0123   0.0140
 377 C   :2py    0.0223   0.0139  -0.1255   0.0202   0.0139  -0.0379   0.0717
 378 C   :2pz   -0.0731   0.0096   0.0461  -0.0894  -0.0035  -0.0246   0.0159
 379 C   :2px   -0.0108  -0.0047   0.0663  -0.0260   0.0041   0.0443   0.0182
 380 C   :2py   -0.0021  -0.0167   0.1856  -0.1150   0.0271   0.1222   0.0783
 381 C   :2pz    0.0268  -0.0189  -0.0269  -0.0017  -0.0168  -0.0456  -0.0028
 383 C   :3d1-   0.0010   0.0076  -0.0055   0.0004  -0.0008  -0.0108  -0.0027
 387 C   :3d2-   0.0132   0.0570  -0.0330  -0.0031  -0.0025  -0.0013  -0.0169
 388 C   :3d1-  -0.0011  -0.0580   0.0192  -0.0020   0.0027  -0.0051   0.0272
 389 C   :3d0   -0.0298  -0.0430   0.0362  -0.0049   0.0014   0.0052   0.0045
 390 C   :3d1+   0.0184   0.0037  -0.0167   0.0121   0.0052  -0.0040   0.0081
 391 C   :3d2+  -0.0284  -0.0133   0.0251  -0.0182  -0.0020   0.0107  -0.0047
 393 C   :1s     0.0095   0.0119  -0.0198   0.0298   0.0056  -0.0389  -0.0007
 394 C   :1s     0.1131   0.1764  -0.1121   0.0950  -0.0011  -0.0623  -0.0947
 395 C   :1s     0.1149   0.3750   0.0629  -0.3276   0.0090  -0.0834   0.0922
 396 C   :2px    0.0092   0.0655  -0.0597  -0.0205   0.0302   0.0371   0.0572
 397 C   :2py   -0.0715  -0.1342   0.0502  -0.0166  -0.0120   0.0496  -0.0256
 398 C   :2pz   -0.0125  -0.0563   0.0326   0.0065   0.0114   0.0995   0.0634
 399 C   :2px    0.0353   0.0557  -0.0349   0.0577  -0.0126   0.0081  -0.0273
 400 C   :2py   -0.0354   0.0299  -0.0209  -0.0565  -0.0474   0.0173   0.0168
 401 C   :2pz   -0.0703  -0.0719   0.0628  -0.1280  -0.0111  -0.0010   0.0436
 402 C   :2px    0.0265   0.0512   0.0343  -0.0359   0.0004  -0.0168   0.0297
 403 C   :2py    0.0277   0.0395  -0.1260   0.0461   0.0077  -0.1443  -0.0679
 404 C   :2pz   -0.0073  -0.0455  -0.0747   0.0752   0.0100  -0.0419  -0.0502
 410 C   :3d2-  -0.0057   0.0101  -0.0145  -0.0153  -0.0029  -0.0040   0.0027
 411 C   :3d1-  -0.0039  -0.0412   0.0420   0.0174   0.0133  -0.0099   0.0245
 412 C   :3d0    0.0136   0.0029  -0.0244   0.0375   0.0036  -0.0037  -0.0164
 413 C   :3d1+  -0.0071  -0.0185   0.0216  -0.0160   0.0034  -0.0038   0.0168
 414 C   :3d2+   0.0145   0.0187  -0.0384   0.0276   0.0001   0.0039  -0.0235
 416 C   :1s     0.0050  -0.0060  -0.0020   0.0213  -0.0005  -0.0141  -0.0110
 417 C   :1s    -0.0301   0.0216   0.0164   0.0238   0.0090   0.0235  -0.0426
 418 C   :1s    -0.1230   0.0260  -0.1767   0.1277  -0.0434  -0.1348  -0.0889
 419 C   :2px    0.0164   0.0144   0.0442  -0.0561  -0.0461  -0.1518  -0.0677
 420 C   :2py    0.0282   0.1114  -0.0292  -0.0638   0.0130   0.0540   0.0480
 421 C   :2pz    0.0102   0.1036  -0.0626  -0.0046  -0.0272  -0.1208  -0.0577
 422 C   :2px   -0.0172  -0.0193  -0.0022   0.0054  -0.0018  -0.0048   0.0117
 423 C   :2py    0.0372   0.0032  -0.1028   0.0451   0.0140  -0.0413   0.0285
 424 C   :2pz    0.0421   0.0170  -0.0279   0.0190   0.0151   0.0217   0.0068
 425 C   :2px    0.0179   0.0105  -0.0160  -0.0012  -0.0021  -0.0050  -0.0043
 426 C   :2py   -0.0122  -0.0150   0.1147  -0.0513   0.0120   0.1070   0.0456
 427 C   :2pz   -0.0357  -0.0139   0.0691  -0.0229   0.0085   0.0492   0.0164
 433 C   :3d2-  -0.0043   0.0213  -0.0105   0.0001  -0.0027   0.0008  -0.0123
 434 C   :3d1-   0.0031  -0.0314   0.0198  -0.0125   0.0044   0.0021   0.0187
 435 C   :3d0    0.0056  -0.0068  -0.0149   0.0063   0.0028  -0.0077   0.0053
 436 C   :3d1+  -0.0044   0.0035   0.0140  -0.0134  -0.0024   0.0030   0.0012
 437 C   :3d2+   0.0051   0.0046  -0.0231   0.0126   0.0011  -0.0049  -0.0037
 439 C   :1s    -0.0100  -0.0112   0.0042  -0.0110   0.0001   0.0181   0.0004
 440 C   :1s     0.0144  -0.0542   0.0382   0.0203   0.0148   0.0155  -0.0199
 441 C   :1s    -0.1558  -0.2938   0.1119   0.0762  -0.0400   0.0784   0.0098
 442 C   :2px    0.0285   0.0515  -0.0107  -0.0346   0.0004  -0.1578   0.0297
[...]
 66   YDIPLEN   ZDIPLEN    0.210000      -51.095808       10.825369

      Averaged value       0.210000      322.025921      130.518019

 67   XDIPLEN   XDIPLEN    0.211000      324.744960      249.503651
 68   YDIPLEN   YDIPLEN    0.211000      380.152772      113.268376
 69   ZDIPLEN   ZDIPLEN    0.211000      278.664044       63.195651
 70   XDIPLEN   YDIPLEN    0.211000      125.359603       46.509119
 71   XDIPLEN   ZDIPLEN    0.211000        7.619132       33.612237
 72   YDIPLEN   ZDIPLEN    0.211000      -56.296681       10.257942

      Averaged value       0.211000      327.853925      141.989226

 73   XDIPLEN   XDIPLEN    0.212000      329.842119      272.603356
 74   YDIPLEN   YDIPLEN    0.212000      383.302058      126.544072
 75   ZDIPLEN   ZDIPLEN    0.212000      280.887808       69.303042
 76   XDIPLEN   YDIPLEN    0.212000      120.850955       63.241021
 77   XDIPLEN   ZDIPLEN    0.212000        3.532473       38.513723
 78   YDIPLEN   ZDIPLEN    0.212000      -62.648940        8.932832

      Averaged value       0.212000      331.343995      156.150157

 79   XDIPLEN   XDIPLEN    0.213000      328.013125      301.037399
 80   YDIPLEN   YDIPLEN    0.213000      383.067114      141.132054
 81   ZDIPLEN   ZDIPLEN    0.213000      282.670636       75.800483
 82   XDIPLEN   YDIPLEN    0.213000      111.183528       81.417749
 83   XDIPLEN   ZDIPLEN    0.213000       -1.267170       42.343744
 84   YDIPLEN   ZDIPLEN    0.213000      -70.303207        5.852649

      Averaged value       0.213000      331.250292      172.656645

 85   XDIPLEN   XDIPLEN    0.214000      315.022269      333.107914
 86   YDIPLEN   YDIPLEN    0.214000      378.844008      155.365827
 87   ZDIPLEN   ZDIPLEN    0.214000      284.359906       82.751333
 88   XDIPLEN   YDIPLEN    0.214000       94.520636       99.033494
 89   XDIPLEN   ZDIPLEN    0.214000       -6.184589       45.011993
 90   YDIPLEN   ZDIPLEN    0.214000      -78.557446       -0.129948

      Averaged value       0.214000      326.075394      190.408358

 91   XDIPLEN   XDIPLEN    0.215000      286.716506      362.778740
 92   YDIPLEN   YDIPLEN    0.215000      371.020651      167.498237
 93   ZDIPLEN   ZDIPLEN    0.215000      286.147186       90.808478
 94   XDIPLEN   YDIPLEN    0.215000       69.757311      112.397098
 95   XDIPLEN   ZDIPLEN    0.215000      -10.732572       46.822017
 96   YDIPLEN   ZDIPLEN    0.215000      -85.960355       -9.607501

      Averaged value       0.215000      314.628114      207.028485

 97   XDIPLEN   XDIPLEN    0.216000      244.136095      379.670262
 98   YDIPLEN   YDIPLEN    0.216000      360.770110      176.123009
 99   ZDIPLEN   ZDIPLEN    0.216000      287.485404      100.959294
100   XDIPLEN   YDIPLEN    0.216000       38.466799      116.296445
101   XDIPLEN   ZDIPLEN    0.216000      -14.696329       48.284500
102   YDIPLEN   ZDIPLEN    0.216000      -90.880885      -22.323344

      Averaged value       0.216000      297.463870      218.917522

103   XDIPLEN   XDIPLEN    0.217000      197.407527      375.545037
104   YDIPLEN   YDIPLEN    0.217000      350.011780      180.605333
105   ZDIPLEN   ZDIPLEN    0.217000      286.819150      113.837119
106   XDIPLEN   YDIPLEN    0.217000        6.510892      106.924828
107   XDIPLEN   ZDIPLEN    0.217000      -18.224436       49.987072
108   YDIPLEN   ZDIPLEN    0.217000      -91.884820      -37.345431

      Averaged value       0.217000      278.079486      223.329163

109   XDIPLEN   XDIPLEN    0.218000      160.499379      352.532487
110   YDIPLEN   YDIPLEN    0.218000      340.576331      181.783196
111   ZDIPLEN   ZDIPLEN    0.218000      281.891043      128.847045
112   XDIPLEN   YDIPLEN    0.218000      -18.489504       85.743983
113   XDIPLEN   ZDIPLEN    0.218000      -21.915141       52.296818
114   YDIPLEN   ZDIPLEN    0.218000      -87.820862      -53.103310

      Averaged value       0.218000      260.988918      221.054243

115   XDIPLEN   XDIPLEN    0.219000      140.768747      321.575108
116   YDIPLEN   YDIPLEN    0.219000      332.818294      181.135195
117   ZDIPLEN   ZDIPLEN    0.219000      270.823176      143.591933
118   XDIPLEN   YDIPLEN    0.219000      -32.293734       58.764001
119   XDIPLEN   ZDIPLEN    0.219000      -26.521838       54.972308
120   YDIPLEN   ZDIPLEN    0.219000      -78.223970      -67.234615

      Averaged value       0.219000      248.136739      215.434079

121   XDIPLEN   XDIPLEN    0.220000      136.350968      293.371000
122   YDIPLEN   YDIPLEN    0.220000      326.129174      179.053583
123   ZDIPLEN   ZDIPLEN    0.220000      253.583648      154.379283
124   XDIPLEN   YDIPLEN    0.220000      -35.511676       32.020849
125   XDIPLEN   ZDIPLEN    0.220000      -32.343224       57.227547
126   YDIPLEN   ZDIPLEN    0.220000      -64.116763      -76.995945

      Averaged value       0.220000      238.687930      208.934622

127   XDIPLEN   XDIPLEN    0.221000      141.105607      273.552492
128   YDIPLEN   YDIPLEN    0.221000      320.674706      174.906351
129   ZDIPLEN   ZDIPLEN    0.221000      232.683977      157.846007
130   XDIPLEN   YDIPLEN    0.221000      -31.195929        8.840927
131   XDIPLEN   ZDIPLEN    0.221000      -38.931616       58.359250
132   YDIPLEN   ZDIPLEN    0.221000      -48.272249      -80.550095

      Averaged value       0.221000      231.488097      202.101617

133   XDIPLEN   XDIPLEN    0.222000      148.678677      263.496686
134   YDIPLEN   YDIPLEN    0.222000      317.809222      168.637423
135   ZDIPLEN   ZDIPLEN    0.222000      212.511886      152.758140
136   XDIPLEN   YDIPLEN    0.222000      -22.324059      -10.072660
137   XDIPLEN   ZDIPLEN    0.222000      -45.520385       58.385310
138   YDIPLEN   ZDIPLEN    0.222000      -34.163555      -78.254469

      Averaged value       0.222000      226.333262      194.964083

139   XDIPLEN   XDIPLEN    0.223000      153.465646      261.837954
140   YDIPLEN   YDIPLEN    0.223000      318.661219      161.643013
141   ZDIPLEN   ZDIPLEN    0.223000      197.323559      140.974287
142   XDIPLEN   YDIPLEN    0.223000      -10.427282      -25.337002
143   XDIPLEN   ZDIPLEN    0.223000      -51.917266       57.955883
144   YDIPLEN   ZDIPLEN    0.223000      -23.970754      -72.574331

      Averaged value       0.223000      223.150142      188.151751

145   XDIPLEN   XDIPLEN    0.224000      151.064113      264.436029
146   YDIPLEN   YDIPLEN    0.224000      322.875904      155.631049
147   ZDIPLEN   ZDIPLEN    0.224000      188.986373      126.313029
148   XDIPLEN   YDIPLEN    0.224000        4.443636      -37.101162
149   XDIPLEN   ZDIPLEN    0.224000      -58.812392       57.327286
150   YDIPLEN   ZDIPLEN    0.224000      -17.555010      -66.167370

      Averaged value       0.224000      220.975464      182.126702

151   XDIPLEN   XDIPLEN    0.225000      140.488185      264.522826
152   YDIPLEN   YDIPLEN    0.225000      329.362161      151.148293
153   ZDIPLEN   ZDIPLEN    0.225000      186.758499      112.095329
154   XDIPLEN   YDIPLEN    0.225000       22.102855      -44.006432
155   XDIPLEN   ZDIPLEN    0.225000      -66.763723       55.622600
156   YDIPLEN   ZDIPLEN    0.225000      -13.629780      -60.229051

      Averaged value       0.225000      218.869615      175.922149

157   XDIPLEN   XDIPLEN    0.226000      126.413533      256.154324
158   YDIPLEN   YDIPLEN    0.226000      337.793214      147.891984
159   ZDIPLEN   ZDIPLEN    0.226000      188.940713       99.987334
160   XDIPLEN   YDIPLEN    0.226000       40.443014      -44.430844
161   XDIPLEN   ZDIPLEN    0.226000      -75.011940       51.654985
162   YDIPLEN   ZDIPLEN    0.226000      -11.375667      -54.789746

      Averaged value       0.226000      217.715820      168.011214

163   XDIPLEN   XDIPLEN    0.227000      116.524150      239.198542
164   YDIPLEN   YDIPLEN    0.227000      348.665446      146.099809
165   ZDIPLEN   ZDIPLEN    0.227000      194.114038       90.584799
166   XDIPLEN   YDIPLEN    0.227000       56.138309      -38.856065
167   XDIPLEN   ZDIPLEN    0.227000      -81.914972       45.463058
168   YDIPLEN   ZDIPLEN    0.227000      -10.690662      -49.899419

      Averaged value       0.227000      219.767878      158.627717

169   XDIPLEN   XDIPLEN    0.228000      115.326048      219.001646
170   YDIPLEN   YDIPLEN    0.228000      362.117161      146.889926
171   ZDIPLEN   ZDIPLEN    0.228000      201.200213       84.148748
172   XDIPLEN   YDIPLEN    0.228000       67.204916      -29.935193
173   XDIPLEN   ZDIPLEN    0.228000      -86.550589       38.402721
174   YDIPLEN   ZDIPLEN    0.228000      -11.453806      -46.041303

      Averaged value       0.228000      226.214474      150.013440

175   XDIPLEN   XDIPLEN    0.229000      122.115008      201.254878
176   YDIPLEN   YDIPLEN    0.229000      377.370512      151.401320
177   ZDIPLEN   ZDIPLEN    0.229000      209.228861       80.769313
178   XDIPLEN   YDIPLEN    0.229000       73.855181      -20.395533
179   XDIPLEN   ZDIPLEN    0.229000      -89.301438       31.877348
180   YDIPLEN   ZDIPLEN    0.229000      -13.122859      -43.714670

      Averaged value       0.229000      236.238127      144.475170

181   XDIPLEN   XDIPLEN    0.230000      133.613998      188.853227
182   YDIPLEN   YDIPLEN    0.230000      393.139849      160.110207
183   ZDIPLEN   ZDIPLEN    0.230000      217.282768       80.332263
184   XDIPLEN   YDIPLEN    0.230000       77.389093      -11.812682
185   XDIPLEN   ZDIPLEN    0.230000      -91.221091       26.517996
186   YDIPLEN   ZDIPLEN    0.230000      -14.892725      -43.074403

      Averaged value       0.230000      248.012205      143.098565

187   XDIPLEN   XDIPLEN    0.231000      146.646847      182.096851
188   YDIPLEN   YDIPLEN    0.231000      408.248018      172.714535
189   ZDIPLEN   ZDIPLEN    0.231000      224.511585       82.481997
190   XDIPLEN   YDIPLEN    0.231000       79.245682       -4.758453
191   XDIPLEN   ZDIPLEN    0.231000      -93.369139       22.171960
192   YDIPLEN   ZDIPLEN    0.231000      -15.933590      -43.833723

      Averaged value       0.231000      259.802150      145.764461

193   XDIPLEN   XDIPLEN    0.232000      159.250060      180.005401
194   YDIPLEN   YDIPLEN    0.232000      422.188596      188.402760
195   ZDIPLEN   ZDIPLEN    0.232000      230.234930       86.545926
196   XDIPLEN   YDIPLEN    0.232000       80.755176        0.945089
197   XDIPLEN   ZDIPLEN    0.232000      -96.456105       18.115135
198   YDIPLEN   ZDIPLEN    0.232000      -15.639224      -45.212332

      Averaged value       0.232000      270.557862      151.651362

199   XDIPLEN   XDIPLEN    0.233000      170.609868      181.548143
200   YDIPLEN   YDIPLEN    0.233000      435.468502      206.568004
201   ZDIPLEN   ZDIPLEN    0.233000      234.231517       91.599683
202   XDIPLEN   YDIPLEN    0.233000       82.788475        6.247310
203   XDIPLEN   ZDIPLEN    0.233000     -100.584840       13.327695
204   YDIPLEN   ZDIPLEN    0.233000      -14.065007      -46.060547

      Averaged value       0.233000      280.103296      159.905277

205   XDIPLEN   XDIPLEN    0.234000      180.277938      186.173592
206   YDIPLEN   YDIPLEN    0.234000      449.252502      227.819819
207   ZDIPLEN   ZDIPLEN    0.234000      236.899588       96.948255
208   XDIPLEN   YDIPLEN    0.234000       85.149835       12.358988
209   XDIPLEN   ZDIPLEN    0.234000     -105.171414        6.977721
210   YDIPLEN   ZDIPLEN    0.234000      -12.230821      -45.546601

      Averaged value       0.234000      288.810009      170.313888

211   XDIPLEN   XDIPLEN    0.235000      187.590869      193.380283
212   YDIPLEN   YDIPLEN    0.235000      464.067147      254.503655
213   ZDIPLEN   ZDIPLEN    0.235000      238.743206      102.585852
214   XDIPLEN   YDIPLEN    0.235000       86.820304       19.701696
215   XDIPLEN   ZDIPLEN    0.235000     -109.354484       -1.159464
216   YDIPLEN   ZDIPLEN    0.235000      -11.532803      -43.967301

      Averaged value       0.235000      296.800408      183.489930

217   XDIPLEN   XDIPLEN    0.236000      192.083025      202.199997
218   YDIPLEN   YDIPLEN    0.236000      478.383194      289.968631
219   ZDIPLEN   ZDIPLEN    0.236000      239.709908      108.808476
220   XDIPLEN   YDIPLEN    0.236000       87.085615       27.717278
221   XDIPLEN   ZDIPLEN    0.236000     -112.553640      -10.899893
222   YDIPLEN   ZDIPLEN    0.236000      -12.701079      -42.600793

      Averaged value       0.236000      303.392043      200.325702

223   XDIPLEN   XDIPLEN    0.237000      194.122524      211.824799
224   YDIPLEN   YDIPLEN    0.237000      488.048195      337.165251
225   ZDIPLEN   ZDIPLEN    0.237000      239.389295      115.510992
226   XDIPLEN   YDIPLEN    0.237000       86.104863       35.781149
227   XDIPLEN   ZDIPLEN    0.237000     -114.435013      -22.209834
228   YDIPLEN   ZDIPLEN    0.237000      -15.442872      -42.939812

      Averaged value       0.237000      307.186671      221.500347

229   XDIPLEN   XDIPLEN    0.238000      194.049516      222.601833
230   YDIPLEN   YDIPLEN    0.238000      486.163414      397.192175
231   ZDIPLEN   ZDIPLEN    0.238000      237.653682      122.234037
232   XDIPLEN   YDIPLEN    0.238000       84.337325       44.042961
233   XDIPLEN   ZDIPLEN    0.238000     -114.292855      -35.288448
234   YDIPLEN   ZDIPLEN    0.238000      -18.535089      -46.171893

      Averaged value       0.238000      305.955537      247.342682

235   XDIPLEN   XDIPLEN    0.239000      190.635065      235.117467
236   YDIPLEN   YDIPLEN    0.239000      463.383845      466.960956
237   ZDIPLEN   ZDIPLEN    0.239000      234.663017      128.739331
238   XDIPLEN   YDIPLEN    0.239000       81.499680       53.279618
239   XDIPLEN   ZDIPLEN    0.239000     -110.721412      -49.777147
240   YDIPLEN   ZDIPLEN    0.239000      -19.928821      -52.647986

      Averaged value       0.239000      296.227309      276.939252

241   XDIPLEN   XDIPLEN    0.240000      181.667018      248.026669
242   YDIPLEN   YDIPLEN    0.240000      410.793003      535.821376
243   ZDIPLEN   ZDIPLEN    0.240000      230.280374      134.954397
244   XDIPLEN   YDIPLEN    0.240000       76.123493       63.775283
245   XDIPLEN   ZDIPLEN    0.240000     -102.466916      -63.934330
246   YDIPLEN   ZDIPLEN    0.240000      -17.319272      -61.165273

      Averaged value       0.240000      274.246798      306.267480

247   XDIPLEN   XDIPLEN    0.241000      166.593134      257.839653
248   YDIPLEN   YDIPLEN    0.241000      327.605962      585.049181
249   ZDIPLEN   ZDIPLEN    0.241000      224.237143      140.263648
250   XDIPLEN   YDIPLEN    0.241000       66.434898       74.160078
251   XDIPLEN   ZDIPLEN    0.241000      -89.853073      -75.139765
252   YDIPLEN   ZDIPLEN    0.241000       -9.549591      -68.756476

      Averaged value       0.241000      239.478746      327.717494

253   XDIPLEN   XDIPLEN    0.242000      147.737519      261.538743
254   YDIPLEN   YDIPLEN    0.242000      228.774062      597.195330
255   ZDIPLEN   ZDIPLEN    0.242000      217.068829      143.706829
256   XDIPLEN   YDIPLEN    0.242000       52.044018       81.601861
257   XDIPLEN   ZDIPLEN    0.242000      -75.049130      -81.648737
258   YDIPLEN   ZDIPLEN    0.242000        1.893570      -72.088314

      Averaged value       0.242000      197.860137      334.146967

259   XDIPLEN   XDIPLEN    0.243000      128.353410      258.383114
260   YDIPLEN   YDIPLEN    0.243000      138.774710      571.025080
261   ZDIPLEN   ZDIPLEN    0.243000      210.064983      145.148260
262   XDIPLEN   YDIPLEN    0.243000       34.677730       83.373488
263   XDIPLEN   ZDIPLEN    0.243000      -60.549492      -83.672395
264   YDIPLEN   ZDIPLEN    0.243000       13.429422      -70.020587

      Averaged value       0.243000      159.064368      324.852151

265   XDIPLEN   XDIPLEN    0.244000      111.179240      248.960711
266   YDIPLEN   YDIPLEN    0.244000       73.646075      522.056618
267   ZDIPLEN   ZDIPLEN    0.244000      204.019382      145.540398
268   XDIPLEN   YDIPLEN    0.244000       17.557612       78.194817
269   XDIPLEN   ZDIPLEN    0.244000      -47.743601      -82.574004
270   YDIPLEN   ZDIPLEN    0.244000       22.121752      -64.362346

      Averaged value       0.244000      129.614899      305.519242

271   XDIPLEN   XDIPLEN    0.245000       98.686048      234.966844
272   YDIPLEN   YDIPLEN    0.245000       33.855332      467.922061
273   ZDIPLEN   ZDIPLEN    0.245000      198.645247      145.868351
274   XDIPLEN   YDIPLEN    0.245000        4.242367       66.948105
275   XDIPLEN   ZDIPLEN    0.245000      -36.946538      -79.749972
276   YDIPLEN   ZDIPLEN    0.245000       27.549029      -57.983065

      Averaged value       0.245000      110.395542      282.919086

277   XDIPLEN   XDIPLEN    0.246000       91.959378      219.482968
278   YDIPLEN   YDIPLEN    0.246000       11.385768      418.345311
279   ZDIPLEN   ZDIPLEN    0.246000      193.188119      146.449815
280   XDIPLEN   YDIPLEN    0.246000       -2.983442       52.423712
281   XDIPLEN   ZDIPLEN    0.246000      -27.809228      -76.280196
282   YDIPLEN   ZDIPLEN    0.246000       31.358285      -52.492197

      Averaged value       0.246000       98.844422      261.426031

283   XDIPLEN   XDIPLEN    0.247000       89.790441      205.227011
284   YDIPLEN   YDIPLEN    0.247000       -1.913009      374.813018
285   ZDIPLEN   ZDIPLEN    0.247000      186.900509      147.059213
286   XDIPLEN   YDIPLEN    0.247000       -3.815636       37.826372
287   XDIPLEN   ZDIPLEN    0.247000      -19.510722      -72.738995
288   YDIPLEN   ZDIPLEN    0.247000       35.217930      -47.309143

      Averaged value       0.247000       91.592647      242.366414

289   XDIPLEN   XDIPLEN    0.248000       90.087705      192.961139
290   YDIPLEN   YDIPLEN    0.248000       -9.871383      334.681046
291   ZDIPLEN   ZDIPLEN    0.248000      179.161517      146.883677
292   XDIPLEN   YDIPLEN    0.248000        0.641315       25.786213
293   XDIPLEN   ZDIPLEN    0.248000      -11.049817      -68.915893
294   YDIPLEN   ZDIPLEN    0.248000       39.025988      -40.982691

      Averaged value       0.248000       86.459280      224.841954

295   XDIPLEN   XDIPLEN    0.249000       91.739244      181.982645
296   YDIPLEN   YDIPLEN    0.249000      -12.117488      296.186001
297   ZDIPLEN   ZDIPLEN    0.249000      170.093527      144.422638
298   XDIPLEN   YDIPLEN    0.249000        8.279143       18.003316
299   XDIPLEN   ZDIPLEN    0.249000       -1.915298      -63.665252
300   YDIPLEN   ZDIPLEN    0.249000       41.399297      -33.242912

      Averaged value       0.249000       83.238428      207.530428

301   XDIPLEN   XDIPLEN    0.250000       95.060311      171.769588
302   YDIPLEN   YDIPLEN    0.250000       -7.723612      260.516993
303   ZDIPLEN   ZDIPLEN    0.250000      161.327537      138.412559
304   XDIPLEN   YDIPLEN    0.250000       16.606357       14.707919
305   XDIPLEN   ZDIPLEN    0.250000        7.050157      -55.592388
306   YDIPLEN   ZDIPLEN    0.250000       41.519583      -25.194863

      Averaged value       0.250000       82.888079      190.233047
 
 ------------------------------------------------------------------
 Damping parameter equals  0.004557 au = 0.1240 eV = 1000.1 cm-1

  Total CPU  time used in RESPONSE:  38 hours  5 minutes 30 seconds
  Total wall time used in RESPONSE:  38 hours  6 minutes 57 seconds


                   .-------------------------------------------.
                   | End of Dynamic Property Section (RESPONS) |
                   `-------------------------------------------'

  Total CPU  time used in DALTON:  43 hours 31 minutes  4 seconds
  Total wall time used in DALTON:  43 hours 32 minutes 37 seconds

 
     Date and time (Linux)  : Thu Sep 12 04:13:51 2019
     Host name              : node367.cluster                         
