

     ************************************************************************
     *************** Dalton - An Electronic Structure Program ***************
     ************************************************************************

    This is output from DALTON release Dalton2016.1 (2016)
         ( Web site: http://daltonprogram.org )

   ----------------------------------------------------------------------------

    NOTE:
     
    Dalton is an experimental code for the evaluation of molecular
    properties using (MC)SCF, DFT, CI, and CC wave functions.
    The authors accept no responsibility for the performance of
    the code or for the correctness of the results.
     
    The code (in whole or part) is provided under a licence and
    is not to be reproduced for further distribution without
    the written permission of the authors or their representatives.
     
    See the home page "http://daltonprogram.org" for further information.
     
    If results obtained with this code are published,
    the appropriate citations would be both of:
     
       K. Aidas, C. Angeli, K. L. Bak, V. Bakken, R. Bast,
       L. Boman, O. Christiansen, R. Cimiraglia, S. Coriani,
       P. Dahle, E. K. Dalskov, U. Ekstroem,
       T. Enevoldsen, J. J. Eriksen, P. Ettenhuber, B. Fernandez,
       L. Ferrighi, H. Fliegl, L. Frediani, K. Hald, A. Halkier,
       C. Haettig, H. Heiberg, T. Helgaker, A. C. Hennum,
       H. Hettema, E. Hjertenaes, S. Hoest, I.-M. Hoeyvik,
       M. F. Iozzi, B. Jansik, H. J. Aa. Jensen, D. Jonsson,
       P. Joergensen, J. Kauczor, S. Kirpekar,
       T. Kjaergaard, W. Klopper, S. Knecht, R. Kobayashi, H. Koch,
       J. Kongsted, A. Krapp, K. Kristensen, A. Ligabue,
       O. B. Lutnaes, J. I. Melo, K. V. Mikkelsen, R. H. Myhre,
       C. Neiss, C. B. Nielsen, P. Norman, J. Olsen,
       J. M. H. Olsen, A. Osted, M. J. Packer, F. Pawlowski,
       T. B. Pedersen, P. F. Provasi, S. Reine, Z. Rinkevicius,
       T. A. Ruden, K. Ruud, V. Rybkin, P. Salek, C. C. M. Samson,
       A. Sanchez de Meras, T. Saue, S. P. A. Sauer,
       B. Schimmelpfennig, K. Sneskov, A. H. Steindal,
       K. O. Sylvester-Hvid, P. R. Taylor, A. M. Teale,
       E. I. Tellgren, D. P. Tew, A. J. Thorvaldsen, L. Thoegersen,
       O. Vahtras, M. A. Watson, D. J. D. Wilson, M. Ziolkowski
       and H. Agren,
       "The Dalton quantum chemistry program system",
       WIREs Comput. Mol. Sci. 2014, 4:269–284 (doi: 10.1002/wcms.1172)
     
    and
     
       Dalton, a Molecular Electronic Structure Program,
       Release Dalton2016.1 (2016), see http://daltonprogram.org
   ----------------------------------------------------------------------------

    Authors in alphabetical order (major contribution(s) in parenthesis):

  Kestutis Aidas,           Vilnius University,           Lithuania   (QM/MM)
  Celestino Angeli,         University of Ferrara,        Italy       (NEVPT2)
  Keld L. Bak,              UNI-C,                        Denmark     (AOSOPPA, non-adiabatic coupling, magnetic properties)
  Vebjoern Bakken,          University of Oslo,           Norway      (DALTON; geometry optimizer, symmetry detection)
  Radovan Bast,             UiT The Arctic U. of Norway,  Norway      (DALTON installation and execution frameworks)
  Pablo Baudin,             University of Valencia,       Spain       (Cholesky excitation energies)
  Linus Boman,              NTNU,                         Norway      (Cholesky decomposition and subsystems)
  Ove Christiansen,         Aarhus University,            Denmark     (CC module)
  Renzo Cimiraglia,         University of Ferrara,        Italy       (NEVPT2)
  Sonia Coriani,            University of Trieste,        Italy       (CC module, MCD in RESPONS)
  Janusz Cukras,            University of Trieste,        Italy       (MChD in RESPONS)
  Paal Dahle,               University of Oslo,           Norway      (Parallelization)
  Erik K. Dalskov,          UNI-C,                        Denmark     (SOPPA)
  Thomas Enevoldsen,        Univ. of Southern Denmark,    Denmark     (SOPPA)
  Janus J. Eriksen,         Aarhus University,            Denmark     (Polarizable embedding model, TDA)
  Rasmus Faber,             University of Copenhagen,     Denmark     (Vib.avg. NMR with SOPPA, parallel AO-SOPPA)
  Berta Fernandez,          U. of Santiago de Compostela, Spain       (doublet spin, ESR in RESPONS)
  Lara Ferrighi,            Aarhus University,            Denmark     (PCM Cubic response)
  Heike Fliegl,             University of Oslo,           Norway      (CCSD(R12))
  Luca Frediani,            UiT The Arctic U. of Norway,  Norway      (PCM)
  Bin Gao,                  UiT The Arctic U. of Norway,  Norway      (Gen1Int library)
  Christof Haettig,         Ruhr-University Bochum,       Germany     (CC module)
  Kasper Hald,              Aarhus University,            Denmark     (CC module)
  Asger Halkier,            Aarhus University,            Denmark     (CC module)
  Frederik Beyer Hansen,    University of Copenhagen,     Denmark     (Parallel AO-SOPPA)
  Erik D. Hedegaard,        Univ. of Southern Denmark,    Denmark     (Polarizable embedding model, QM/MM)
  Hanne Heiberg,            University of Oslo,           Norway      (geometry analysis, selected one-electron integrals)
  Trygve Helgaker,          University of Oslo,           Norway      (DALTON; ABACUS, ERI, DFT modules, London, and much more)
  Alf Christian Hennum,     University of Oslo,           Norway      (Parity violation)
  Hinne Hettema,            University of Auckland,       New Zealand (quadratic response in RESPONS; SIRIUS supersymmetry)
  Eirik Hjertenaes,         NTNU,                         Norway      (Cholesky decomposition)
  Maria Francesca Iozzi,    University of Oslo,           Norway      (RPA)
  Brano Jansik              Technical Univ. of Ostrava    Czech Rep.  (DFT cubic response)
  Hans Joergen Aa. Jensen,  Univ. of Southern Denmark,    Denmark     (DALTON; SIRIUS, RESPONS, ABACUS modules, London, and much more)
  Dan Jonsson,              UiT The Arctic U. of Norway,  Norway      (cubic response in RESPONS module)
  Poul Joergensen,          Aarhus University,            Denmark     (RESPONS, ABACUS, and CC modules)
  Maciej Kaminski,          University of Warsaw,         Poland      (CPPh in RESPONS)
  Joanna Kauczor,           Linkoeping University,        Sweden      (Complex polarization propagator (CPP) module)
  Sheela Kirpekar,          Univ. of Southern Denmark,    Denmark     (Mass-velocity & Darwin integrals)
  Wim Klopper,              KIT Karlsruhe,                Germany     (R12 code in CC, SIRIUS, and ABACUS modules)
  Stefan Knecht,            ETH Zurich,                   Switzerland (Parallel CI and MCSCF)
  Rika Kobayashi,           Australian National Univ.,    Australia   (DIIS in CC, London in MCSCF)
  Henrik Koch,              NTNU,                         Norway      (CC module, Cholesky decomposition)
  Jacob Kongsted,           Univ. of Southern Denmark,    Denmark     (Polarizable embedding model, QM/MM)
  Andrea Ligabue,           University of Modena,         Italy       (CTOCD, AOSOPPA)
  Nanna H. List             Univ. of Southern Denmark,    Denmark     (Polarizable embedding model)
  Ola B. Lutnaes,           University of Oslo,           Norway      (DFT Hessian)
  Juan I. Melo,             University of Buenos Aires,   Argentina   (LRESC, Relativistic Effects on NMR Shieldings)
  Kurt V. Mikkelsen,        University of Copenhagen,     Denmark     (MC-SCRF and QM/MM)
  Rolf H. Myhre,            NTNU,                         Norway      (Cholesky, subsystems and ECC2)
  Christian Neiss,          Univ. Erlangen-Nuernberg,     Germany     (CCSD(R12))
  Christian B. Nielsen,     University of Copenhagen,     Denmark     (QM/MM)
  Patrick Norman,           Linkoeping University,        Sweden      (Cubic response and complex frequency response in RESPONS)
  Jeppe Olsen,              Aarhus University,            Denmark     (SIRIUS CI/density modules)
  Jogvan Magnus H. Olsen,   Univ. of Southern Denmark,    Denmark     (Polarizable embedding model, QM/MM)
  Anders Osted,             Copenhagen University,        Denmark     (QM/MM)
  Martin J. Packer,         University of Sheffield,      UK          (SOPPA)
  Filip Pawlowski,          Kazimierz Wielki University,  Poland      (CC3)
  Morten N. Pedersen,       Univ. of Southern Denmark,    Denmark     (Polarizable embedding model)
  Thomas B. Pedersen,       University of Oslo,           Norway      (Cholesky decomposition)
  Patricio F. Provasi,      University of Northeastern,   Argentina   (Analysis of coupling constants in localized orbitals)
  Zilvinas Rinkevicius,     KTH Stockholm,                Sweden      (open-shell DFT, ESR)
  Elias Rudberg,            KTH Stockholm,                Sweden      (DFT grid and basis info)
  Torgeir A. Ruden,         University of Oslo,           Norway      (Numerical derivatives in ABACUS)
  Kenneth Ruud,             UiT The Arctic U. of Norway,  Norway      (DALTON; ABACUS magnetic properties and much more)
  Pawel Salek,              KTH Stockholm,                Sweden      (DALTON; DFT code)
  Claire C. M. Samson       University of Karlsruhe       Germany     (Boys localization, r12 integrals in ERI)
  Alfredo Sanchez de Meras, University of Valencia,       Spain       (CC module, Cholesky decomposition)
  Trond Saue,               Paul Sabatier University,     France      (direct Fock matrix construction)
  Stephan P. A. Sauer,      University of Copenhagen,     Denmark     (SOPPA(CCSD), SOPPA prop., AOSOPPA, vibrational g-factors)
  Bernd Schimmelpfennig,    Forschungszentrum Karlsruhe,  Germany     (AMFI module)
  Kristian Sneskov,         Aarhus University,            Denmark     (Polarizable embedding model, QM/MM)
  Arnfinn H. Steindal,      UiT The Arctic U. of Norway,  Norway      (parallel QM/MM, Polarizable embedding model)
  Casper Steinmann,         Univ. of Southern Denmark,    Denmark     (QFIT, Polarizable embedding model)
  K. O. Sylvester-Hvid,     University of Copenhagen,     Denmark     (MC-SCRF)
  Peter R. Taylor,          VLSCI/Univ. of Melbourne,     Australia   (Symmetry handling ABACUS, integral transformation)
  Andrew M. Teale,          University of Nottingham,     England     (DFT-AC, DFT-D)
  David P. Tew,             University of Bristol,        England     (CCSD(R12))
  Olav Vahtras,             KTH Stockholm,                Sweden      (triplet response, spin-orbit, ESR, TDDFT, open-shell DFT)
  David J. Wilson,          La Trobe University,          Australia   (DFT Hessian and DFT magnetizabilities)
  Hans Agren,               KTH Stockholm,                Sweden      (SIRIUS module, RESPONS, MC-SCRF solvation model)
 --------------------------------------------------------------------------------

     Date and time (Linux)  : Tue Sep 10 08:41:51 2019
     Host name              : node358.cluster                         

 * Work memory size             :  2048000000 = 15.259 gigabytes.

 * Directories for basis set searches:
   1) /groups/kemi/andreasb/DHAVHF_exc/imag_polar/VHF_trans
   2) /lustre/hpc/software/kemi/DALTON2016/build-parallel/basis


Compilation information
-----------------------

 Who compiled             | sauer
 Host                     | fend01.cluster
 System                   | Linux-2.6.32-642.6.2.el6.x86_64
 CMake generator          | Unix Makefiles
 Processor                | x86_64
 64-bit integers          | OFF
 MPI                      | ON
 Fortran compiler         | /software/kemi/openmpi-1.6.5-i4/bin/mpif90
 Fortran compiler version | ifort (IFORT) 13.0.1 20121010
 C compiler               | /software/kemi/openmpi-1.6.5-i4/bin/mpicc
 C compiler version       | icc (ICC) 13.0.1 20121010
 C++ compiler             | /software/kemi/openmpi-1.6.5-i4/bin/mpicxx
 C++ compiler version     | unknown
 BLAS                     | /users/software/kemi/intel/Compiler/composer_xe_20
                          | 13.1.117/mkl/lib/intel64/libmkl_intel_lp64.so;/use
                          | rs/software/kemi/intel/Compiler/composer_xe_2013.1
                          | .117/mkl/lib/intel64/libmkl_sequential.so;/users/s
                          | oftware/kemi/intel/Compiler/composer_xe_2013.1.117
                          | /mkl/lib/intel64/libmkl_core.so;/usr/lib64/libpthr
                          | ead.so;/usr/lib64/libm.so
 LAPACK                   | /users/software/kemi/intel/Compiler/composer_xe_20
                          | 13.1.117/mkl/lib/intel64/libmkl_lapack95_lp64.a;/u
                          | sers/software/kemi/intel/Compiler/composer_xe_2013
                          | .1.117/mkl/lib/intel64/libmkl_intel_lp64.so
 Static linking           | OFF
 Last Git revision        | a10ef0cf7cc62686ecfeaafb7364c9b014fdc003
 Configuration time       | 2017-07-05 12:54:37.340882

 * MPI run using 8 processes.


   Content of the .dal input file
 ----------------------------------

**DALTON                                          
.RUN RESPONSE                                     
.DIRECT                                           
**WAVE FUNCTIONS                                  
.DFT                                              
CAMB3LYP                                          
**RESPONSE                                        
*ABSORPTION                                       
.ALPHA                                            
.DAMPING                                          
 0.0045566                                        
.FREQ INTERVAL                                    
 0.10 0.15 0.001                                  
**END OF                                          


   Content of the .mol file
 ----------------------------

ATOMBASIS                                                                      
VHF_trans.xyz                                                                  
Hej Bendte                                                                     
Atomtypes=3 Charge=0 Nosymmetry Angstrom                                       
  7.0000     3 Bas=aug-cc-pVDZ                                                 
N    1.350260000       -4.003450000       -0.723930000                         
N    4.437170000       -0.969950000       -0.525430000                         
N   -0.414850000       -2.205130000        1.405920000                         
  6.0000    18 Bas=aug-cc-pVDZ                                                 
C   -1.536260000       -0.440500000        0.220090000                         
C   -2.742610000       -0.847040000        0.929990000                         
C   -4.044840000       -0.569920000        0.697170000                         
C   -4.660100000        0.191740000       -0.363220000                         
C   -4.036050000        0.948980000       -1.288530000                         
C   -2.615540000        1.155940000       -1.445760000                         
C   -1.567070000        0.569490000       -0.825780000                         
C    1.935240000       -1.535590000       -0.231700000                         
C    0.972160000       -0.625800000        0.135930000                         
C   -0.356890000       -1.077870000        0.560310000                         
C    1.611910000       -2.904450000       -0.501110000                         
C    3.317450000       -1.202610000       -0.392780000                         
C    1.305630000        0.814170000        0.230970000                         
C    2.073670000        1.450510000       -0.750660000                         
C    0.823530000        1.560900000        1.311470000                         
C    2.354110000        2.806020000       -0.650410000                         
C    1.118490000        2.913750000        1.415830000                         
C    1.881080000        3.539170000        0.434230000                         
  1.0000    13 Bas=aug-cc-pVDZ                                                 
H    0.224040000        1.072560000        2.071630000                         
H    0.751730000        3.480510000        2.263830000                         
H   -2.538430000       -1.452920000        1.806820000                         
H   -4.743630000       -0.988640000        1.416270000                         
H   -5.745050000        0.165430000       -0.390190000                         
H   -4.661960000        1.477490000       -2.001110000                         
H   -2.350220000        1.871340000       -2.218790000                         
H   -0.597890000        0.873480000       -1.202500000                         
H    2.428390000        0.889990000       -1.608190000                         
H    2.940490000        3.290900000       -1.422180000                         
H    2.104850000        4.597090000        0.512630000                         
H    0.486950000       -2.509980000        1.743610000                         
H   -0.910800000       -2.998840000        1.015890000                         


       *******************************************************************
       *********** Output from DALTON general input processing ***********
       *******************************************************************

 --------------------------------------------------------------------------------
   Overall default print level:    0
   Print level for DALTON.STAT:    1

    Parallel calculation using MPI
    AO-direct calculation (in sections where implemented)
    HERMIT 1- and 2-electron integral sections will be executed
    "Old" integral transformation used (limited to max 255 basis functions)
    Wave function sections will be executed (SIRIUS module)
    Dynamic molecular response properties section will be executed (RESPONSE module)
 --------------------------------------------------------------------------------


   ****************************************************************************
   *************** Output of molecule and basis set information ***************
   ****************************************************************************


    The two title cards from your ".mol" input:
    ------------------------------------------------------------------------
 1: VHF_trans.xyz                                                           
 2: Hej Bendte                                                              
    ------------------------------------------------------------------------

  Coordinates are entered in Angstrom and converted to atomic units.
          - Conversion factor : 1 bohr = 0.52917721 A

  Atomic type no.    1
  --------------------
  Nuclear charge:   7.00000
  Number of symmetry independent centers:    3
  Number of basis sets to read;    2
  The basis set is "aug-cc-pVDZ" from the basis set library.
  Basis set file used for this atomic type with Z =   7 :
     "/lustre/hpc/software/kemi/DALTON2016/build-parallel/basis/aug-cc-pVDZ"

  Atomic type no.    2
  --------------------
  Nuclear charge:   6.00000
  Number of symmetry independent centers:   18
  Number of basis sets to read;    2
  The basis set is "aug-cc-pVDZ" from the basis set library.
  Basis set file used for this atomic type with Z =   6 :
     "/lustre/hpc/software/kemi/DALTON2016/build-parallel/basis/aug-cc-pVDZ"

  Atomic type no.    3
  --------------------
  Nuclear charge:   1.00000
  Number of symmetry independent centers:   13
  Number of basis sets to read;    2
  The basis set is "aug-cc-pVDZ" from the basis set library.
  Basis set file used for this atomic type with Z =   1 :
     "/lustre/hpc/software/kemi/DALTON2016/build-parallel/basis/aug-cc-pVDZ"


                         SYMGRP: Point group information
                         -------------------------------

@    Point group: C1 


                                 Isotopic Masses
                                 ---------------

                           N          14.003074
                           N          14.003074
                           N          14.003074
                           C          12.000000
                           C          12.000000
                           C          12.000000
                           C          12.000000
                           C          12.000000
                           C          12.000000
                           C          12.000000
                           C          12.000000
                           C          12.000000
                           C          12.000000
                           C          12.000000
                           C          12.000000
                           C          12.000000
                           C          12.000000
                           C          12.000000
                           C          12.000000
                           C          12.000000
                           C          12.000000
                           H           1.007825
                           H           1.007825
                           H           1.007825
                           H           1.007825
                           H           1.007825
                           H           1.007825
                           H           1.007825
                           H           1.007825
                           H           1.007825
                           H           1.007825
                           H           1.007825
                           H           1.007825
                           H           1.007825

                       Total mass:   271.110947 amu
                       Natural abundance:  80.883 %

 Center-of-mass coordinates (a.u.):    0.087333   -0.067709   -0.013745


  Atoms and basis sets
  --------------------

  Number of atom types :    3
  Total number of atoms:   34

  label    atoms   charge   prim   cont     basis
  ----------------------------------------------------------------------
  N           3    7.0000    35    23      [10s5p2d|4s3p2d]                                   
  C          18    6.0000    35    23      [10s5p2d|4s3p2d]                                   
  H          13    1.0000    11     9      [5s2p|3s2p]                                        
  ----------------------------------------------------------------------
  total:     34  142.0000   878   600
  ----------------------------------------------------------------------
  Spherical harmonic basis used.

  Threshold for neglecting AO integrals:  1.00D-12

  Max    interatomic separation is   10.2462 Angstrom (   19.3625 Bohr)
  between atoms   26 and    2, "H     " and "N     ".

  Min HX interatomic separation is    1.0101 Angstrom (    1.9087 Bohr)

  Min YX interatomic separation is    1.1513 Angstrom (    2.1756 Bohr)


  Bond distances (Angstrom):
  --------------------------

                  atom 1     atom 2       distance
                  ------     ------       --------
  bond distance:  C          C            1.457571
  bond distance:  C          C            1.351593
  bond distance:  C          C            1.443294
  bond distance:  C          C            1.348721
  bond distance:  C          C            1.444092
  bond distance:  C          C            1.454260
  bond distance:  C          C            1.351883
  bond distance:  C          C            1.374916
  bond distance:  C          N            1.410365
  bond distance:  C          C            1.383078
  bond distance:  C          C            1.466574
  bond distance:  C          N            1.151482
  bond distance:  C          C            1.432097
  bond distance:  C          N            1.151303
  bond distance:  C          C            1.430848
  bond distance:  C          C            1.481131
  bond distance:  C          C            1.399433
  bond distance:  C          C            1.399109
  bond distance:  C          C            1.387841
  bond distance:  C          C            1.388559
  bond distance:  C          C            1.392017
  bond distance:  C          C            1.391486
  bond distance:  H          C            1.084300
  bond distance:  H          C            1.083898
  bond distance:  H          C            1.085178
  bond distance:  H          C            1.086618
  bond distance:  H          C            1.085604
  bond distance:  H          C            1.085752
  bond distance:  H          C            1.086171
  bond distance:  H          C            1.083346
  bond distance:  H          C            1.084143
  bond distance:  H          C            1.083780
  bond distance:  H          C            1.084165
  bond distance:  H          N            1.010055
  bond distance:  H          N            1.013936


  Bond angles (degrees):
  ----------------------

                  atom 1     atom 2     atom 3         angle
                  ------     ------     ------         -----
  bond angle:     C          N          H            113.891
  bond angle:     C          N          H            114.528
  bond angle:     H          N          H            109.211
  bond angle:     C          C          C            121.766
  bond angle:     C          C          C            117.220
  bond angle:     C          C          C            120.999
  bond angle:     C          C          C            131.021
  bond angle:     C          C          H            113.175
  bond angle:     C          C          H            115.781
  bond angle:     C          C          C            130.201
  bond angle:     C          C          H            115.252
  bond angle:     C          C          H            114.546
  bond angle:     C          C          C            127.092
  bond angle:     C          C          H            115.562
  bond angle:     C          C          H            117.321
  bond angle:     C          C          C            127.611
  bond angle:     C          C          H            117.183
  bond angle:     C          C          H            115.204
  bond angle:     C          C          C            130.602
  bond angle:     C          C          H            114.341
  bond angle:     C          C          H            115.003
  bond angle:     C          C          C            130.355
  bond angle:     C          C          H            115.215
  bond angle:     C          C          H            114.370
  bond angle:     C          C          C            121.644
  bond angle:     C          C          C            123.557
  bond angle:     C          C          C            114.794
  bond angle:     C          C          C            120.543
  bond angle:     C          C          C            120.183
  bond angle:     C          C          C            119.022
  bond angle:     N          C          C            118.736
  bond angle:     N          C          C            117.201
  bond angle:     C          C          C            124.023
  bond angle:     N          C          C            179.670
  bond angle:     N          C          C            178.199
  bond angle:     C          C          C            121.375
  bond angle:     C          C          C            119.397
  bond angle:     C          C          C            119.218
  bond angle:     C          C          C            120.288
  bond angle:     C          C          H            119.954
  bond angle:     C          C          H            119.735
  bond angle:     C          C          C            120.321
  bond angle:     C          C          H            119.443
  bond angle:     C          C          H            120.235
  bond angle:     C          C          C            120.134
  bond angle:     C          C          H            119.661
  bond angle:     C          C          H            120.204
  bond angle:     C          C          C            120.086
  bond angle:     C          C          H            119.760
  bond angle:     C          C          H            120.154
  bond angle:     C          C          C            119.945
  bond angle:     C          C          H            120.009
  bond angle:     C          C          H            120.045




 Principal moments of inertia (u*A**2) and principal axes
 --------------------------------------------------------

   IA    1210.615506          0.999583   -0.028844   -0.001041
   IB    1936.095953          0.028857    0.999443    0.016738
   IC    2719.571691          0.000558   -0.016761    0.999859


 Rotational constants
 --------------------

               A                   B                   C

            417.4562            261.0299            185.8304 MHz
            0.013925            0.008707            0.006199 cm-1


@  Nuclear repulsion energy : 1474.303175433221 Hartree


                     .---------------------------------------.
                     | Starting in Integral Section (HERMIT) |
                     `---------------------------------------'



 ***************************************************************************************
 ****************** Output from **INTEGRALS input processing (HERMIT) ******************
 ***************************************************************************************


 - Using defaults, no **INTEGRALS input found

 Default print level:        1

 * Nuclear model: Point charge

 Calculation of one-electron Hamiltonian integrals.

 Center of mass  (bohr):      0.087333328132     -0.067709261796     -0.013744918457
 Operator center (bohr):      0.000000000000      0.000000000000      0.000000000000
 Gauge origin    (bohr):      0.000000000000      0.000000000000      0.000000000000
 Dipole origin   (bohr):      0.000000000000      0.000000000000      0.000000000000


     ************************************************************************
     ************************** Output from HERINT **************************
     ************************************************************************

  Time used in ONEDRV     is       1.73 seconds
  Time used in HUCKEL     is       0.59 seconds
  Time used in OVERLAP    is       0.24 seconds
  Time used in POPOVLP    is       0.47 seconds
  Time used in DIPLEN     is       0.28 seconds
  Time used in QUADRUP    is       0.74 seconds
  Time used in KINENE     is       0.62 seconds
  Time used in GABGEN     is       2.69 seconds
  Total CPU  time used in HERMIT:   7.37 seconds
  Total wall time used in HERMIT:   7.74 seconds


                        .----------------------------------.
                        | End of Integral Section (HERMIT) |
                        `----------------------------------'



                   .--------------------------------------------.
                   | Starting in Wave Function Section (SIRIUS) |
                   `--------------------------------------------'



@ Primary orbitals are deleted during canonical orthonormalization
@   because of detected numerical linear dependence or too large coefficients.
@ Eigenvalue threshold for num. lin. dep. =  1.00D-06

@   2 MO components are deleted in symmetry    1
 Overlap eigenvalues of the deleted orbitals:
  8.50D-07  6.50D-07

 Max MO coeff. of last deleted MO & limit:  6.22D+02  1.00D+03

WARNING: Orbitals have been deleted because of numerical
   linear dependence although not requested in input.

 *** Output from Huckel module :

     Using EWMO model:          T
     Using EHT  model:          F
     Number of Huckel orbitals each symmetry:  118

 EWMO - Energy Weighted Maximum Overlap - is a Huckel type method,
        which normally is better than Extended Huckel Theory.
 Reference: Linderberg and Ohrn, Propagators in Quantum Chemistry (Wiley, 1973)

 Huckel EWMO eigenvalues for symmetry :  1
          -15.674841     -15.673676     -15.673366     -11.366991     -11.363424
          -11.362732     -11.358904     -11.356288     -11.355252     -11.354774
          -11.353772     -11.352373     -11.351089     -11.348993     -11.347859
          -11.347607     -11.347171     -11.345347     -11.344608     -11.344389
          -11.344035      -2.084305      -1.934286      -1.859530      -1.684425
           -1.605581      -1.511889      -1.462078      -1.419552      -1.382787
           -1.254390      -1.180833      -1.126450      -1.060067      -1.014477
           -0.977150      -0.942970      -0.896171      -0.848431      -0.825027
           -0.782842      -0.754702      -0.730199      -0.721204      -0.699898
           -0.672472      -0.648151      -0.628061      -0.619030      -0.600080
           -0.589515      -0.586100      -0.563088      -0.559585      -0.541881
           -0.530108      -0.525961      -0.516387      -0.482285      -0.475057
           -0.469831      -0.454968      -0.444877      -0.443314      -0.430924
           -0.420112      -0.402295      -0.397484      -0.385180      -0.367575
           -0.347393      -0.295934      -0.287219      -0.263797      -0.253170
           -0.249033      -0.245440      -0.233437      -0.227840      -0.192025
           -0.189239      -0.183902      -0.177132      -0.170970      -0.145457
           -0.143733      -0.141330      -0.137381      -0.132091      -0.128910
           -0.125821      -0.124981      -0.124498      -0.123389      -0.120751
           -0.120438      -0.120011      -0.119043      -0.116551      -0.114979
           -0.109375      -0.103814      -0.101843      -0.100453      -0.097329
           -0.096972      -0.095010      -0.093427      -0.091227      -0.088917
           -0.086492      -0.084881      -0.081573      -0.079229      -0.078550
           -0.075864      -0.074400      -0.073894

 **********************************************************************
 *SIRIUS* a direct, restricted step, second order MCSCF program       *
 **********************************************************************

 
     Date and time (Linux)  : Tue Sep 10 08:42:20 2019
     Host name              : node358.cluster                         

 Title lines from ".mol" input file:
     VHF_trans.xyz                                                           
     Hej Bendte                                                              

 Print level on unit LUPRI =   2 is   0
 Print level on unit LUW4  =   2 is   5

@    Restricted, closed shell Kohn-Sham DFT calculation.

@    Time-dependent Kohn-Sham DFT calculation (TD-DFT).
 Fock matrices are calculated directly and in parallel without use of integrals on disk.

 Initial molecular orbitals are obtained according to
 ".MOSTART EWMO  " input option

     Wave function specification
     ============================
@    Wave function type        --- KS-DFT ---
@    Number of closed shell electrons         142
@    Number of electrons in active shells       0
@    Total charge of the molecule               0

@    Spin multiplicity and 2 M_S                1         0
@    Total number of symmetries                 1 (point group: C1 )
@    Reference state symmetry                   1 (irrep name : A  )
 
     This is a DFT calculation of type: Camb3lyp
 CAM-B3LYP w/ alpha=0.190 beta=0.460 mu=0.330 VwnWeight=0.190 LypWeight=0.810

     Orbital specifications
     ======================
@    Abelian symmetry species          All |    1
@                                          |  A  
                                       --- |  ---
@    Occupied SCF orbitals              71 |   71
@    Secondary orbitals                527 |  527
@    Total number of orbitals          598 |  598
@    Number of basis functions         600 |  600

     Optimization information
     ========================
@    Number of configurations                 1
@    Number of orbital rotations          37417
     ------------------------------------------
@    Total number of variables            37418

     Maximum number of Fock   iterations      0
     Maximum number of DIIS   iterations     60
     Maximum number of QC-SCF iterations     60
     Threshold for SCF convergence     1.00D-05
 
     This is a DFT calculation of type: Camb3lyp
 CAM-B3LYP w/ alpha=0.190 beta=0.460 mu=0.330 VwnWeight=0.190 LypWeight=0.810

    INFORMATION: Switched to "new" integral transformation (from 1988 ;-) )
    because more than 255 basis functions.


 ***********************************************
 ***** DIIS acceleration of SCF iterations *****
 ***********************************************

 C1-DIIS algorithm; max error vectors =    8

 Iter      Total energy        Error norm    Delta(E)  DIIS dim.
 -----------------------------------------------------------------------------
   1  Screening settings (-IFTHRS, JTDIIS, DIFDEN, times)   -9    1    F  1.11D+03  1.11D+03
      K-S energy, electrons, error :    -87.148275304615 141.9998773078   -1.23D-04
@  1    -854.304637746        6.93562D+00   -8.54D+02    1
      Virial theorem: -V/T =      2.016892
@      MULPOP N      -1.35; N      -1.38; N      -0.46; C      -0.00; C       0.37; C       0.28; C       0.17; C       0.16; C       0.29; C       0.05; 
@             C      -1.00; C       1.01; C       0.57; C       1.36; C       1.40; C      -0.14; C       0.20; C       0.31; C       0.24; C       0.15; 
@             C       0.20; H      -0.30; H      -0.21; H      -0.26; H      -0.24; H      -0.22; H      -0.23; H      -0.25; H      -0.23; H      -0.27; 
   1  Level shift: doubly occupied orbital energies shifted by -2.00D-01
 -----------------------------------------------------------------------------
   2  Screening settings (-IFTHRS, JTDIIS, DIFDEN, times)   -9    2    F  1.13D+03  1.13D+03
      K-S energy, electrons, error :    -89.869686588713 141.9999342284   -6.58D-05
@  2    -855.693638432        5.57256D+00   -1.39D+00    2
      Virial theorem: -V/T =      1.997539
@      MULPOP N       1.34; N       1.44; N       0.26; C       2.37; C       0.53; C       0.02; C       0.40; C       0.36; C       0.06; C       1.16; 
@             C       1.01; C       2.02; C       0.04; C      -2.58; C      -2.73; C       0.70; C       1.16; C       1.24; C       0.04; C      -0.24; 
@             C       0.89; H      -1.07; H      -0.76; H      -0.94; H      -0.80; H      -0.73; H      -0.76; H      -0.83; H      -1.11; H      -1.05; 
   2  Level shift: doubly occupied orbital energies shifted by -2.00D-01
 -----------------------------------------------------------------------------
   3  Screening settings (-IFTHRS, JTDIIS, DIFDEN, times)   -9    3    F  1.13D+03  1.13D+03
      K-S energy, electrons, error :    -89.744608125111 141.9999379421   -6.21D-05
@  3    -857.345060059        1.68536D+00   -1.65D+00    3
      Virial theorem: -V/T =      2.001111
@      MULPOP N      -0.43; N      -0.42; N      -0.01; C       2.31; C       0.63; C       0.13; C       0.46; C       0.46; C      -0.00; C       1.34; 
@             C       1.45; C       1.71; C       0.15; C      -0.83; C      -0.92; C       1.02; C       1.17; C       1.16; C       0.08; C      -0.17; 
@             C       0.91; H      -1.15; H      -0.82; H      -1.03; H      -0.86; H      -0.79; H      -0.81; H      -0.91; H      -1.16; H      -1.12; 
   3  Level shift: doubly occupied orbital energies shifted by -1.00D-01
 -----------------------------------------------------------------------------
   4  Screening settings (-IFTHRS, JTDIIS, DIFDEN, times)  -10    4    F  1.15D+03  1.15D+03
      K-S energy, electrons, error :    -89.189767990138 141.9999346371   -6.54D-05
@  4    -857.490674400        4.41595D-01   -1.46D-01    4
      Virial theorem: -V/T =      2.006471
@      MULPOP N      -0.17; N      -0.15; N      -0.03; C       2.19; C       0.68; C       0.28; C       0.58; C       0.57; C       0.18; C       1.28; 
@             C       1.36; C       1.79; C       0.15; C      -1.16; C      -1.29; C       0.93; C       1.18; C       1.16; C       0.23; C       0.01; 
@             C       1.02; H      -1.18; H      -0.87; H      -1.09; H      -0.91; H      -0.84; H      -0.87; H      -0.96; H      -1.20; H      -1.16; 
   4  Level shift: doubly occupied orbital energies shifted by -5.00D-02
 -----------------------------------------------------------------------------
   5  Screening settings (-IFTHRS, JTDIIS, DIFDEN, times)  -10    5    F  1.14D+03  1.14D+03
      K-S energy, electrons, error :    -89.282019049686 141.9999356102   -6.44D-05
@  5    -857.503554791        1.64529D-01   -1.29D-02    5
      Virial theorem: -V/T =      2.005627
@      MULPOP N      -0.16; N      -0.16; N       0.00; C       2.17; C       0.66; C       0.26; C       0.57; C       0.55; C       0.15; C       1.35; 
@             C       1.50; C       1.64; C       0.14; C      -1.15; C      -1.26; C       0.97; C       1.20; C       1.14; C       0.20; C      -0.04; 
@             C       1.00; H      -1.17; H      -0.86; H      -1.09; H      -0.91; H      -0.83; H      -0.86; H      -0.95; H      -1.19; H      -1.16; 
   5  Level shift: doubly occupied orbital energies shifted by -2.50D-02
 -----------------------------------------------------------------------------
   6  Screening settings (-IFTHRS, JTDIIS, DIFDEN, times)  -11    6    F  1.14D+03  1.14D+03
      K-S energy, electrons, error :    -89.299846091943 141.9999357206   -6.43D-05
@  6    -857.505341598        6.89747D-02   -1.79D-03    6
      Virial theorem: -V/T =      2.005458
@      MULPOP N      -0.15; N      -0.14; N      -0.03; C       2.24; C       0.66; C       0.25; C       0.56; C       0.56; C       0.14; C       1.35; 
@             C       1.44; C       1.71; C       0.11; C      -1.19; C      -1.30; C       1.02; C       1.18; C       1.15; C       0.20; C      -0.04; 
@             C       1.00; H      -1.17; H      -0.86; H      -1.09; H      -0.91; H      -0.83; H      -0.86; H      -0.95; H      -1.19; H      -1.16; 
   6  Level shift: doubly occupied orbital energies shifted by -1.25D-02
 -----------------------------------------------------------------------------
   7  Screening settings (-IFTHRS, JTDIIS, DIFDEN, times)  -11    7    F  1.15D+03  1.15D+03
      K-S energy, electrons, error :    -89.295018829307 141.9999358037   -6.42D-05
@  7    -857.505680857        2.32099D-02   -3.39D-04    7
      Virial theorem: -V/T =      2.005506
@      MULPOP N      -0.15; N      -0.14; N      -0.02; C       2.21; C       0.65; C       0.27; C       0.56; C       0.56; C       0.16; C       1.34; 
@             C       1.46; C       1.68; C       0.13; C      -1.18; C      -1.29; C       1.02; C       1.18; C       1.13; C       0.21; C      -0.03; 
@             C       1.00; H      -1.17; H      -0.86; H      -1.09; H      -0.91; H      -0.84; H      -0.86; H      -0.95; H      -1.19; H      -1.15; 
 -----------------------------------------------------------------------------
   8  Screening settings (-IFTHRS, JTDIIS, DIFDEN, times)  -12    8    F  1.14D+03  1.14D+03
      K-S energy, electrons, error :    -89.294404068959 141.9999358115   -6.42D-05
@  8    -857.505732176        1.10618D-02   -5.13D-05    8
      Virial theorem: -V/T =      2.005514
@      MULPOP N      -0.15; N      -0.14; N      -0.03; C       2.20; C       0.66; C       0.26; C       0.56; C       0.56; C       0.15; C       1.35; 
@             C       1.46; C       1.67; C       0.14; C      -1.18; C      -1.28; C       1.03; C       1.18; C       1.13; C       0.20; C      -0.03; 
@             C       1.00; H      -1.17; H      -0.86; H      -1.09; H      -0.91; H      -0.83; H      -0.86; H      -0.95; H      -1.19; H      -1.15; 
 -----------------------------------------------------------------------------
   9  Screening settings (-IFTHRS, JTDIIS, DIFDEN, times)  -12    9    F  1.14D+03  1.14D+03
      K-S energy, electrons, error :    -89.295164828693 141.9999358000   -6.42D-05
@  9    -857.505744242        3.53148D-03   -1.21D-05    8
      Virial theorem: -V/T =      2.005507
@      MULPOP N      -0.15; N      -0.14; N      -0.03; C       2.21; C       0.65; C       0.26; C       0.56; C       0.56; C       0.15; C       1.34; 
@             C       1.46; C       1.67; C       0.14; C      -1.18; C      -1.28; C       1.03; C       1.17; C       1.13; C       0.20; C      -0.03; 
@             C       1.00; H      -1.17; H      -0.86; H      -1.09; H      -0.91; H      -0.83; H      -0.86; H      -0.95; H      -1.19; H      -1.15; 
 -----------------------------------------------------------------------------
  10  Screening settings (-IFTHRS, JTDIIS, DIFDEN, times)  -13   10    F  1.15D+03  1.15D+03
      K-S energy, electrons, error :    -89.295086603829 141.9999357962   -6.42D-05
@ 10    -857.505746783        1.99716D-03   -2.54D-06    8
      Virial theorem: -V/T =      2.005508
@      MULPOP N      -0.15; N      -0.14; N      -0.03; C       2.20; C       0.65; C       0.26; C       0.56; C       0.56; C       0.15; C       1.34; 
@             C       1.46; C       1.67; C       0.14; C      -1.18; C      -1.29; C       1.03; C       1.17; C       1.13; C       0.21; C      -0.03; 
@             C       1.00; H      -1.17; H      -0.86; H      -1.09; H      -0.91; H      -0.83; H      -0.86; H      -0.95; H      -1.19; H      -1.15; 
 -----------------------------------------------------------------------------
  11  Screening settings (-IFTHRS, JTDIIS, DIFDEN, times)  -13   11    F  1.14D+03  1.14D+03
      K-S energy, electrons, error :    -89.295141831351 141.9999358030   -6.42D-05
@ 11    -857.505747302        9.08347D-04   -5.19D-07    8
      Virial theorem: -V/T =      2.005507
@      MULPOP N      -0.15; N      -0.14; N      -0.03; C       2.20; C       0.65; C       0.26; C       0.56; C       0.56; C       0.15; C       1.34; 
@             C       1.46; C       1.67; C       0.14; C      -1.18; C      -1.29; C       1.03; C       1.17; C       1.13; C       0.21; C      -0.03; 
@             C       1.00; H      -1.17; H      -0.86; H      -1.09; H      -0.91; H      -0.83; H      -0.86; H      -0.95; H      -1.19; H      -1.15; 
 -----------------------------------------------------------------------------
  12  Screening settings (-IFTHRS, JTDIIS, DIFDEN, times)  -13   12    F  1.15D+03  1.15D+03
      K-S energy, electrons, error :    -89.295123497475 141.9999358021   -6.42D-05
@ 12    -857.505747470        4.13316D-04   -1.68D-07    8
      Virial theorem: -V/T =      2.005507
@      MULPOP N      -0.15; N      -0.14; N      -0.03; C       2.20; C       0.65; C       0.26; C       0.56; C       0.56; C       0.15; C       1.34; 
@             C       1.46; C       1.67; C       0.14; C      -1.18; C      -1.29; C       1.03; C       1.17; C       1.13; C       0.21; C      -0.03; 
@             C       1.00; H      -1.17; H      -0.86; H      -1.09; H      -0.91; H      -0.83; H      -0.86; H      -0.95; H      -1.19; H      -1.15; 
 -----------------------------------------------------------------------------
  13  Screening settings (-IFTHRS, JTDIIS, DIFDEN, times)  -13   13    F  1.20D+03  1.20D+03
      K-S energy, electrons, error :    -89.295069070625 141.9999358005   -6.42D-05
@ 13    -857.505747494        1.46139D-04   -2.44D-08    8
      Virial theorem: -V/T =      2.005508
@      MULPOP N      -0.15; N      -0.14; N      -0.03; C       2.20; C       0.65; C       0.26; C       0.56; C       0.56; C       0.15; C       1.34; 
@             C       1.46; C       1.67; C       0.14; C      -1.18; C      -1.29; C       1.03; C       1.17; C       1.13; C       0.21; C      -0.03; 
@             C       1.00; H      -1.17; H      -0.86; H      -1.09; H      -0.91; H      -0.83; H      -0.86; H      -0.95; H      -1.19; H      -1.15; 
 -----------------------------------------------------------------------------
  14  Screening settings (-IFTHRS, JTDIIS, DIFDEN, times)  -13   14    F  1.20D+03  1.20D+03
      K-S energy, electrons, error :    -89.295108942489 141.9999358004   -6.42D-05
@ 14    -857.505747496        8.30936D-05   -2.13D-09    8
      Virial theorem: -V/T =      2.005507
@      MULPOP N      -0.15; N      -0.14; N      -0.03; C       2.21; C       0.65; C       0.26; C       0.56; C       0.56; C       0.15; C       1.34; 
@             C       1.46; C       1.67; C       0.14; C      -1.18; C      -1.29; C       1.03; C       1.17; C       1.13; C       0.21; C      -0.03; 
@             C       1.00; H      -1.17; H      -0.86; H      -1.09; H      -0.91; H      -0.83; H      -0.86; H      -0.95; H      -1.19; H      -1.15; 
 -----------------------------------------------------------------------------
  15  Screening settings (-IFTHRS, JTDIIS, DIFDEN, times)  -13   15    F  1.18D+03  1.18D+03
      K-S energy, electrons, error :    -89.295110941594 141.9999358002   -6.42D-05
@ 15    -857.505747497        3.78761D-05   -7.81D-10    8
      Virial theorem: -V/T =      2.005507
@      MULPOP N      -0.15; N      -0.14; N      -0.03; C       2.21; C       0.65; C       0.26; C       0.56; C       0.56; C       0.15; C       1.34; 
@             C       1.46; C       1.67; C       0.14; C      -1.18; C      -1.29; C       1.03; C       1.17; C       1.13; C       0.21; C      -0.03; 
@             C       1.00; H      -1.17; H      -0.86; H      -1.09; H      -0.91; H      -0.83; H      -0.86; H      -0.95; H      -1.19; H      -1.15; 
 -----------------------------------------------------------------------------
  16  Screening settings (-IFTHRS, JTDIIS, DIFDEN, times)  -13   16    F  1.14D+03  1.14D+03
      K-S energy, electrons, error :    -89.295104733811 141.9999357999   -6.42D-05
@ 16    -857.505747497        1.52010D-05   -1.10D-10    8
      Virial theorem: -V/T =      2.005507
@      MULPOP N      -0.15; N      -0.14; N      -0.03; C       2.21; C       0.65; C       0.26; C       0.56; C       0.56; C       0.15; C       1.34; 
@             C       1.46; C       1.67; C       0.14; C      -1.18; C      -1.29; C       1.03; C       1.17; C       1.13; C       0.21; C      -0.03; 
@             C       1.00; H      -1.17; H      -0.86; H      -1.09; H      -0.91; H      -0.83; H      -0.86; H      -0.95; H      -1.19; H      -1.15; 
 -----------------------------------------------------------------------------
  17  Screening settings (-IFTHRS, JTDIIS, DIFDEN, times)  -13   17    F  1.14D+03  1.14D+03
      K-S energy, electrons, error :    -89.295105016997 141.9999357998   -6.42D-05
@ 17    -857.505747497        6.78505D-06    5.46D-12    8

@ *** DIIS converged in  17 iterations !
@     Converged SCF energy, gradient:   -857.505747497291    6.79D-06
    - total time used in SIRFCK :              0.00 seconds


 *** SCF orbital energy analysis ***

 Only the 20 lowest virtual orbital energies printed in each symmetry.

 Number of electrons :  142
 Orbital occupations :   71

 Sym       Kohn-Sham orbital energies

1 A     -14.42306592   -14.41984079   -14.41622998   -10.33978381   -10.33494090
        -10.31875004   -10.31678868   -10.31324326   -10.30451887   -10.29876148
        -10.29424207   -10.29262833   -10.29206103   -10.29118097   -10.29070648
        -10.29020735   -10.28672050   -10.28668844   -10.28657690   -10.28377343
        -10.28333084    -1.03335119    -1.00977737    -1.00077177    -0.97592460
         -0.95172792    -0.93254653    -0.89389816    -0.88195281    -0.86203031
         -0.85447806    -0.81457539    -0.77287449    -0.74919168    -0.71871067
         -0.70502821    -0.67781217    -0.66706245    -0.63344919    -0.62081011
         -0.61462852    -0.61110829    -0.58312839    -0.57334527    -0.54804482
         -0.54539078    -0.53475724    -0.52534981    -0.51564567    -0.51319290
         -0.49643606    -0.48618405    -0.47240761    -0.46441046    -0.46177431
         -0.45142539    -0.44890939    -0.44350011    -0.43987776    -0.43145551
         -0.42450478    -0.42153896    -0.41714142    -0.40988882    -0.40015161
         -0.36878261    -0.36776723    -0.35434837    -0.33231079    -0.31445705
         -0.24533972    -0.07377960    -0.04622607    -0.00585232    -0.00055443
          0.00774318     0.01034491     0.01222772     0.02057073     0.02437361
          0.03189469     0.03472644     0.03627843     0.04362397     0.04552959
          0.04972810     0.05285857     0.05618186     0.05998336     0.06265621
          0.07010037

    E(LUMO) :    -0.07377960 au (symmetry 1)
  - E(HOMO) :    -0.24533972 au (symmetry 1)
  ------------------------------------------
    gap     :     0.17156012 au

 --- Writing SIRIFC interface file

 CPU and wall time for SCF :   19940.551   19952.208


                       .-----------------------------------.
                       | --- Final results from SIRIUS --- |
                       `-----------------------------------'


@    Spin multiplicity:           1
@    Spatial symmetry:            1 ( irrep  A   in C1  )
@    Total charge of molecule:    0

@    Final DFT energy:           -857.505747497291                 
@    Nuclear repulsion:          1474.303175433221
@    Electronic energy:         -2331.808922930513

@    Final gradient norm:           0.000006785049

 
     Date and time (Linux)  : Tue Sep 10 14:14:53 2019
     Host name              : node358.cluster                         

File label for MO orbitals:  10Sep19   FOCKDIIS

 (Only coefficients > 0.0100 are printed.)

 Molecular orbitals for symmetry species 1  (A  )
 ------------------------------------------------

    Orbital        62       63       64       65       66       67       68
   2 N   :1s    -0.0284  -0.0227   0.0337   0.0164   0.0006  -0.0046   0.0109
   3 N   :1s    -0.0221  -0.0123   0.0348   0.0454   0.0004   0.0191  -0.0128
   4 N   :1s    -0.0781  -0.0450   0.1231   0.1032   0.0115   0.0566  -0.0337
   5 N   :2px    0.3302   0.2562   0.2163   0.2430  -0.0100  -0.0277  -0.1261
   6 N   :2py   -0.0731   0.0578  -0.1456  -0.1222  -0.0012   0.0375   0.0343
   7 N   :2pz    0.3397  -0.2287  -0.0237  -0.0482   0.0204  -0.2807   0.0500
   8 N   :2px   -0.0424  -0.0314  -0.0209  -0.0256   0.0012   0.0041   0.0135
   9 N   :2py   -0.0042  -0.0204   0.0365   0.0298   0.0004   0.0031  -0.0087
  10 N   :2pz   -0.0412   0.0238   0.0068   0.0093  -0.0025   0.0352  -0.0056
  11 N   :2px    0.0084   0.0067   0.0087   0.0107  -0.0039   0.0014  -0.0091
  12 N   :2py   -0.0206  -0.0064   0.0279   0.0172   0.0044   0.0188  -0.0062
  13 N   :2pz    0.0065  -0.0158   0.0033   0.0089   0.0001  -0.0158  -0.0005
  14 N   :3d2-   0.0134   0.0115   0.0091   0.0100  -0.0004  -0.0004  -0.0047
  15 N   :3d1-   0.0146  -0.0100  -0.0019  -0.0031   0.0008  -0.0098   0.0027
  25 N   :1s    -0.0369  -0.0242  -0.0161  -0.0087   0.0011  -0.0018   0.0019
  26 N   :1s    -0.0272  -0.0163  -0.0209  -0.0177   0.0007   0.0029   0.0028
  27 N   :1s    -0.0782  -0.0872  -0.0575  -0.0508   0.0146  -0.0003   0.0191
  28 N   :2px   -0.1094   0.0056  -0.1395  -0.0524   0.0003  -0.0392   0.0012
  29 N   :2py   -0.1175  -0.1950   0.4886   0.1901   0.0080  -0.0002   0.0325
  30 N   :2pz   -0.4124   0.1805   0.0356   0.1533   0.0031  -0.2646  -0.0661
  31 N   :2px    0.0256   0.0121   0.0253   0.0150  -0.0007   0.0113  -0.0032
  32 N   :2py    0.0185   0.0232  -0.0517  -0.0195  -0.0009   0.0022  -0.0042
  33 N   :2pz    0.0466  -0.0233  -0.0043  -0.0190  -0.0003   0.0316   0.0099
  34 N   :2px    0.0143   0.0181   0.0109   0.0116  -0.0030  -0.0014  -0.0060
  35 N   :2py   -0.0009   0.0088   0.0178   0.0036  -0.0011   0.0056   0.0022
  36 N   :2pz   -0.0152   0.0031   0.0001   0.0060   0.0018  -0.0158   0.0004
  37 N   :3d2-   0.0056   0.0082  -0.0214  -0.0084  -0.0003   0.0007  -0.0010
  40 N   :3d1+   0.0192  -0.0084  -0.0024  -0.0068  -0.0001   0.0096   0.0022
  41 N   :3d2+   0.0030  -0.0030   0.0104   0.0036   0.0001   0.0012   0.0003
  48 N   :1s    -0.0096   0.0009   0.0280  -0.0392   0.0204  -0.1018   0.1032
  49 N   :1s     0.0057   0.0065   0.0099   0.0123  -0.0057  -0.0269   0.0242
  50 N   :1s    -0.0455  -0.1053   0.0619   0.0106   0.0992  -0.0960   0.1949
  51 N   :2px   -0.0049   0.0322  -0.1002   0.2158  -0.0481   0.1090  -0.3009
  52 N   :2py   -0.0127  -0.0753  -0.0247   0.0033   0.0028  -0.1488   0.1354
  53 N   :2pz   -0.0159   0.0090   0.0574  -0.1616   0.0281  -0.1749   0.4429
  54 N   :2px    0.0119   0.0018   0.0182  -0.0299   0.0070  -0.0074   0.0137
  55 N   :2py    0.0053   0.0224   0.0089  -0.0081   0.0001   0.0211  -0.0134
  56 N   :2pz   -0.0043  -0.0130   0.0086  -0.0138   0.0070  -0.0000   0.0046
  57 N   :2px   -0.0002  -0.0043   0.0005   0.0221  -0.0002   0.0274  -0.0363
  58 N   :2py   -0.0065  -0.0167   0.0067  -0.0049   0.0113  -0.0213   0.0308
  59 N   :2pz   -0.0004  -0.0036  -0.0062  -0.0290  -0.0143  -0.0219   0.0538
  71 C   :1s     0.0027   0.0077   0.0008  -0.0126  -0.0044   0.0307  -0.0265
  72 C   :1s     0.0579   0.1084  -0.1338  -0.0473   0.0372  -0.2068   0.0747
  73 C   :1s    -0.2882  -0.4432  -0.1937   0.2091  -0.0476   0.0620  -0.1018
  74 C   :2px    0.0301  -0.0643  -0.1008   0.0165  -0.0127   0.0706  -0.1240
  75 C   :2py   -0.0274  -0.1605   0.0129  -0.1534  -0.0065  -0.0570  -0.1848
  76 C   :2pz    0.0094   0.1322   0.1289  -0.2370   0.0143   0.0129  -0.2049
  77 C   :2px   -0.0912  -0.1878   0.0059   0.0180  -0.0519  -0.1892   0.0562
  78 C   :2py    0.0819   0.1698  -0.0292   0.0756  -0.0372   0.0665  -0.1346
  79 C   :2pz   -0.0563  -0.1337   0.0305  -0.0255   0.0497  -0.0124   0.1755
  80 C   :2px   -0.0117   0.1351   0.1104  -0.2402  -0.0427  -0.1591   0.1472
  81 C   :2py    0.0638   0.3437   0.1450  -0.1163   0.0441   0.1139  -0.1015
  82 C   :2pz   -0.0921  -0.4533  -0.1832   0.1475  -0.1094  -0.1114   0.0767
  85 C   :3d0   -0.0010  -0.0062  -0.0022   0.0011   0.0156   0.0007   0.0003
  87 C   :3d2+  -0.0002   0.0065   0.0069  -0.0091   0.0106   0.0001   0.0068
  88 C   :3d2-   0.0288  -0.0136   0.0093   0.0161   0.0069   0.0389   0.0139
  89 C   :3d1-  -0.0256  -0.1316   0.0345   0.0020   0.0082  -0.0457   0.0751
  90 C   :3d0    0.0352   0.1086  -0.0335   0.0073   0.0143   0.0505  -0.0649
  91 C   :3d1+  -0.0182   0.0602  -0.0091  -0.0213  -0.0244  -0.0213  -0.0298
  92 C   :3d2+  -0.0322  -0.1921   0.0535   0.0118   0.0165  -0.0417   0.1067
  94 C   :1s     0.0030   0.0425   0.0092   0.0232   0.0100   0.0193  -0.0123
  95 C   :1s     0.0176   0.2091  -0.0028  -0.0771  -0.0098  -0.0460  -0.0561
  96 C   :1s     0.1445   0.7542   0.4972  -0.5646   0.1023  -0.1458   0.1732
  97 C   :2px   -0.0249   0.0132   0.0393   0.0117   0.0245  -0.0104  -0.0166
  98 C   :2py    0.0133   0.1251   0.0792  -0.1181   0.3442  -0.0415  -0.1415
  99 C   :2pz   -0.0025  -0.1757  -0.1469   0.1177   0.1932   0.0144  -0.2301
 100 C   :2px   -0.0343   0.0464   0.0320  -0.0309  -0.0782  -0.0595  -0.0779
 101 C   :2py    0.0054   0.0051  -0.0674   0.0525  -0.0438   0.0259  -0.0479
 102 C   :2pz   -0.0010   0.0054   0.0880  -0.0604   0.0029  -0.0193   0.1060
 103 C   :2px    0.0270  -0.0478  -0.0905   0.1021  -0.0308   0.0005  -0.0713
 104 C   :2py    0.0117   0.0450   0.0341  -0.0538   0.0266  -0.0425   0.0275
 105 C   :2pz   -0.0210  -0.0458  -0.0400   0.0526   0.0243   0.0436  -0.0486
 106 C   :3d2-  -0.0015   0.0014   0.0072  -0.0110  -0.0131  -0.0008  -0.0051
 111 C   :3d2-  -0.0046  -0.0008  -0.0210   0.0173  -0.0294   0.0008  -0.0385
 112 C   :3d1-  -0.0066  -0.0565  -0.0176   0.0280  -0.0012  -0.0020   0.0036
 113 C   :3d0    0.0095   0.0777   0.0183  -0.0317   0.0046   0.0020  -0.0052
 114 C   :3d1+   0.0075   0.0366   0.0412  -0.0517   0.0220  -0.0106   0.0490
 115 C   :3d2+  -0.0138  -0.0952  -0.0252   0.0397  -0.0073  -0.0080   0.0052
 117 C   :1s     0.0025  -0.0138  -0.0068  -0.0138   0.0019  -0.0028   0.0012
 118 C   :1s    -0.0089   0.0269  -0.0268   0.0131  -0.0281  -0.0039  -0.0565
 119 C   :1s    -0.0374  -0.4882  -0.4270   0.4089  -0.0629   0.0965  -0.1483
 120 C   :2px    0.0299   0.0536  -0.0088  -0.0239   0.0499   0.0131   0.0050
 121 C   :2py    0.0147  -0.0599  -0.1304   0.1762   0.3717   0.0050  -0.0511
 122 C   :2pz    0.0103   0.1549   0.0685  -0.0204   0.2573  -0.0121   0.0120
 123 C   :2px   -0.0282   0.0288   0.0447  -0.0132  -0.0515  -0.0284  -0.0412
 124 C   :2py   -0.0042  -0.0080   0.0210  -0.0223  -0.0227  -0.0046   0.0285
 125 C   :2pz    0.0059   0.0073  -0.0183  -0.0006  -0.0421   0.0011  -0.0309
 126 C   :2px   -0.0062  -0.0068  -0.0337   0.0108  -0.0299  -0.0142  -0.0178
 127 C   :2py   -0.0078  -0.0143  -0.0036   0.0103   0.0243   0.0188  -0.0046
 128 C   :2pz    0.0157   0.0229   0.0086  -0.0064  -0.0031  -0.0181  -0.0010
 131 C   :3d0   -0.0015  -0.0068   0.0003  -0.0048  -0.0020  -0.0015  -0.0101
 132 C   :3d1+   0.0008  -0.0078  -0.0079   0.0049   0.0063   0.0015  -0.0113
 134 C   :3d2-   0.0016  -0.0317  -0.0259   0.0222  -0.0055   0.0028  -0.0120
 135 C   :3d1-  -0.0063  -0.0177  -0.0070   0.0128  -0.0122  -0.0005  -0.0149
 136 C   :3d0    0.0068   0.0143   0.0021  -0.0158   0.0110   0.0001   0.0055
 137 C   :3d1+  -0.0008   0.0593   0.0463  -0.0483   0.0123  -0.0103   0.0168
 138 C   :3d2+  -0.0094  -0.0223  -0.0050   0.0151  -0.0125  -0.0028  -0.0160
 140 C   :1s    -0.0034  -0.0458  -0.0287   0.0266   0.0025   0.0038  -0.0194
 141 C   :1s    -0.0454  -0.1427  -0.0535   0.0725  -0.0300  -0.0232  -0.0169
 142 C   :1s    -0.0150  -0.0640   0.0660  -0.0378  -0.0006  -0.0189   0.0620
 143 C   :2px   -0.0302  -0.1720  -0.0666   0.0550  -0.0279  -0.0113  -0.0360
 144 C   :2py    0.0201   0.1073  -0.0351   0.1695   0.1302   0.0233   0.2561
 145 C   :2pz    0.0254  -0.0286  -0.1453   0.2412   0.0912   0.0446   0.1488
 146 C   :2px    0.0072   0.0719   0.0268  -0.0201   0.0038   0.0096   0.0013
 147 C   :2py   -0.0050  -0.0124   0.0048  -0.0219   0.0120  -0.0060   0.0045
 148 C   :2pz    0.0004  -0.0019   0.0081  -0.0153  -0.0456   0.0002  -0.0576
 149 C   :2px    0.0061   0.0293   0.0274  -0.0159   0.0073  -0.0029   0.0022
 150 C   :2py   -0.0078  -0.0788  -0.0349   0.0441   0.0135   0.0173   0.0206
 151 C   :2pz    0.0110   0.1086   0.0426  -0.0486  -0.0152  -0.0248  -0.0010
 154 C   :3d0   -0.0017  -0.0066  -0.0006  -0.0021   0.0132  -0.0023  -0.0098
 156 C   :3d2+   0.0011   0.0062   0.0033  -0.0052   0.0110   0.0001  -0.0052
 157 C   :3d2-  -0.0004  -0.0114  -0.0120   0.0102   0.0048   0.0022   0.0010
 158 C   :3d1-  -0.0054  -0.0184  -0.0045   0.0063  -0.0007   0.0003  -0.0028
 159 C   :3d0    0.0044   0.0223   0.0085  -0.0126   0.0092  -0.0030   0.0002
 161 C   :3d2+  -0.0053  -0.0196  -0.0044   0.0032  -0.0018   0.0018  -0.0036
 163 C   :1s     0.0019   0.0448   0.0297  -0.0244  -0.0101   0.0159   0.0053
 164 C   :1s    -0.0160   0.0234   0.0674  -0.0391   0.0095   0.0194   0.0273
 165 C   :1s    -0.0335   0.0175   0.0109  -0.0618  -0.0145  -0.0546   0.0578
 166 C   :2px    0.0251   0.1836   0.0883  -0.0801   0.0219   0.0422  -0.0028
 167 C   :2py    0.0364   0.0408  -0.1226   0.2434  -0.1166   0.0469   0.2402
 168 C   :2pz    0.0111   0.0862  -0.0133   0.1215  -0.0951   0.0233   0.2108
 169 C   :2px   -0.0297  -0.1003  -0.0268   0.0357   0.0275  -0.0261   0.0470
 170 C   :2py   -0.0065   0.0179   0.0366  -0.0475   0.0263   0.0063  -0.0003
 171 C   :2pz    0.0028  -0.0372  -0.0224   0.0058  -0.0051  -0.0151  -0.0391
 172 C   :2px   -0.0260  -0.1382  -0.0446   0.0384   0.0106   0.0137   0.0380
 173 C   :2py   -0.0112  -0.0436  -0.0043   0.0214   0.0092   0.0136   0.0297
 174 C   :2pz    0.0157   0.0533  -0.0030  -0.0034  -0.0065  -0.0058  -0.0041
 175 C   :3d2-   0.0001   0.0032   0.0032  -0.0040  -0.0113  -0.0004  -0.0021
 178 C   :3d1+   0.0003  -0.0030  -0.0032   0.0024  -0.0129  -0.0003  -0.0037
 180 C   :3d2-   0.0043  -0.0116  -0.0114   0.0096  -0.0092   0.0106  -0.0118
 181 C   :3d1-  -0.0075  -0.0196  -0.0042   0.0059  -0.0002  -0.0040   0.0067
 182 C   :3d0    0.0079   0.0275   0.0110  -0.0121   0.0023   0.0051   0.0026
 183 C   :3d1+  -0.0048   0.0080   0.0118  -0.0099   0.0011  -0.0136   0.0067
 184 C   :3d2+  -0.0104  -0.0276  -0.0088   0.0107   0.0041  -0.0066   0.0103
 186 C   :1s     0.0041   0.0195   0.0044  -0.0053  -0.0009  -0.0117  -0.0114
 187 C   :1s    -0.0170  -0.1751   0.0481  -0.0008   0.0212  -0.0061   0.0942
 188 C   :1s     0.1745   0.7046   0.2611  -0.1430   0.1517   0.1791  -0.0863
 189 C   :2px   -0.0211  -0.1688  -0.0840   0.0676  -0.0022  -0.0400  -0.0259
 190 C   :2py   -0.0002  -0.0333  -0.0443   0.0787  -0.3316  -0.0076   0.0311
 191 C   :2pz    0.0355   0.1093  -0.0263   0.0677  -0.3089   0.0164   0.0122
 192 C   :2px   -0.0444  -0.1613  -0.0087   0.0357   0.0370  -0.0502   0.0929
 193 C   :2py    0.0221   0.1070  -0.0207   0.0009   0.0301  -0.0185  -0.0425
 194 C   :2pz   -0.0304  -0.1334   0.0226  -0.0086   0.0333   0.0184   0.0262
 195 C   :2px   -0.0246  -0.0270   0.0254  -0.0159   0.0192   0.0062   0.0593
 196 C   :2py   -0.0002  -0.0292  -0.0160  -0.0014  -0.0455  -0.0205  -0.0047
 197 C   :2pz   -0.0063   0.0099   0.0134  -0.0048  -0.0059   0.0092  -0.0045
 198 C   :3d2-  -0.0008   0.0015   0.0059  -0.0106  -0.0040  -0.0016  -0.0114
 201 C   :3d1+  -0.0002  -0.0046  -0.0010  -0.0035  -0.0052  -0.0013  -0.0105
 202 C   :3d2+   0.0019   0.0110   0.0036  -0.0022  -0.0051   0.0042   0.0001
 203 C   :3d2-   0.0153   0.0346  -0.0080  -0.0008  -0.0071   0.0071  -0.0311
 204 C   :3d1-  -0.0041  -0.0268  -0.0189   0.0127  -0.0029  -0.0257  -0.0046
 205 C   :3d0    0.0027   0.0226   0.0154  -0.0069   0.0040   0.0244  -0.0005
 206 C   :3d1+  -0.0152  -0.0462   0.0037   0.0023   0.0036  -0.0113   0.0111
 207 C   :3d2+  -0.0058  -0.0406  -0.0327   0.0234  -0.0095  -0.0421  -0.0090
 209 C   :1s     0.0039  -0.0331  -0.0299   0.0178  -0.0183   0.0324   0.0047
 210 C   :1s    -0.0281  -0.2565   0.0399   0.0017   0.0028  -0.0693   0.1197
 211 C   :1s    -0.0936  -0.8799  -0.3943   0.2403  -0.2291  -0.2846   0.1067
 212 C   :2px    0.0138   0.1606   0.0976  -0.0870   0.0043   0.0837   0.0244
 213 C   :2py    0.0236   0.1323   0.0548  -0.0802  -0.2752   0.0136  -0.1431
 214 C   :2pz   -0.0087  -0.1158  -0.0441  -0.0078  -0.2886  -0.0520  -0.1296
 215 C   :2px   -0.0352  -0.2126  -0.0458   0.0443   0.0046  -0.0433   0.0254
 216 C   :2py    0.0729   0.2080  -0.0612   0.0182  -0.0009   0.0582  -0.1323
 217 C   :2pz   -0.0706  -0.2154   0.0647  -0.0041   0.0652  -0.0422   0.1729
 218 C   :2px    0.0859   0.2341   0.0728  -0.0028   0.1228   0.1447  -0.0742
 219 C   :2py   -0.0323  -0.0065  -0.0175   0.0188   0.0067   0.0137  -0.0267
 220 C   :2pz    0.0476   0.0528   0.0329  -0.0112   0.0308   0.0041   0.0350
 226 C   :3d2-  -0.0099  -0.1084  -0.0137   0.0307   0.0140  -0.0182   0.0208
 227 C   :3d1-   0.0143   0.0076  -0.0463   0.0273  -0.0068  -0.0356  -0.0295
 228 C   :3d0   -0.0065  -0.0230   0.0366  -0.0169   0.0146   0.0354   0.0148
 229 C   :3d1+   0.0063   0.1051   0.0079  -0.0233  -0.0060   0.0184  -0.0311
 230 C   :3d2+   0.0171   0.0213  -0.0672   0.0351  -0.0043  -0.0464  -0.0488
 232 C   :1s     0.0080   0.0070   0.0031  -0.0382   0.0006  -0.0394   0.0083
 233 C   :1s     0.1053   0.4036  -0.1004  -0.0128  -0.0142   0.2136  -0.1470
 234 C   :1s    -0.1829  -0.1335  -0.0380   0.1576   0.1184   0.0519  -0.0007
 235 C   :2px   -0.0775  -0.0670  -0.0149   0.0014   0.0012   0.0474   0.0283
 236 C   :2py    0.0760   0.0673  -0.0842  -0.0345  -0.0028  -0.0840  -0.0481
 237 C   :2pz    0.0147   0.0476  -0.0092  -0.0625  -0.0058   0.2298   0.0598
 238 C   :2px    0.0287  -0.1484   0.0321  -0.0547   0.0083  -0.1829   0.0934
 239 C   :2py   -0.0117   0.1456   0.0319   0.0127   0.0226   0.1180   0.0362
 240 C   :2pz   -0.0035   0.0639   0.0013   0.0081   0.0064   0.0109  -0.0190
 241 C   :2px   -0.0440  -0.2788  -0.0798   0.0441   0.0472  -0.0394  -0.0297
 242 C   :2py    0.0433   0.0114  -0.0897   0.0017   0.0458  -0.0060   0.0077
 243 C   :2pz    0.0123  -0.0152  -0.0254   0.0389  -0.0036  -0.0066   0.0111
 244 C   :3d2-  -0.0177  -0.0173   0.0106  -0.0027   0.0005   0.0028   0.0046
 245 C   :3d1-  -0.0113   0.0088   0.0007   0.0003  -0.0004   0.0135  -0.0009
 247 C   :3d1+  -0.0183   0.0034   0.0005   0.0078  -0.0000  -0.0127  -0.0024
 248 C   :3d2+  -0.0050   0.0044  -0.0141  -0.0130  -0.0001  -0.0036   0.0048
 249 C   :3d2-  -0.0004  -0.0818  -0.0037  -0.0235  -0.0043  -0.0712   0.0044
 250 C   :3d1-  -0.0070   0.0460  -0.0048  -0.0043  -0.0024   0.0298  -0.0005
 251 C   :3d0   -0.0017   0.0139   0.0044  -0.0037  -0.0005   0.0166   0.0032
 252 C   :3d1+  -0.0117   0.0172  -0.0135  -0.0058  -0.0032  -0.0142  -0.0065
 253 C   :3d2+   0.0024   0.0381  -0.0606   0.0362  -0.0044  -0.0361  -0.0572
 255 C   :1s     0.0369   0.0177   0.0014  -0.0099   0.0018  -0.0245   0.0431
 256 C   :1s    -0.0471  -0.1668  -0.0138  -0.0746  -0.0015  -0.0266   0.0447
 257 C   :1s    -0.0001  -0.1081  -0.0444   0.0285  -0.1374   0.0582  -0.1301
 258 C   :2px    0.0704   0.0274  -0.1011   0.0170  -0.0100   0.1362  -0.1123
 259 C   :2py   -0.1084  -0.1644  -0.0174   0.1165  -0.0024  -0.0084  -0.0612
 260 C   :2pz   -0.0494  -0.0271   0.0610  -0.1382   0.0012   0.3784   0.0940
 261 C   :2px   -0.0184  -0.1860  -0.0807  -0.0122  -0.0339  -0.2344   0.1075
 262 C   :2py   -0.0293   0.0702  -0.0521  -0.0133  -0.0240   0.0763   0.0842
 263 C   :2pz   -0.0121   0.0465   0.0346  -0.0385   0.0173   0.0139   0.0054
 264 C   :2px    0.0749   0.1611   0.1250  -0.2594  -0.1202   0.0240   0.0917
 265 C   :2py    0.0024  -0.0572  -0.1553  -0.0610  -0.1582  -0.1372   0.0449
 266 C   :2pz    0.0070   0.1214  -0.0133  -0.0706   0.0041  -0.0050   0.0379
 272 C   :3d2-   0.0832   0.2722  -0.0949   0.0232  -0.0150   0.1293  -0.1209
 273 C   :3d1-  -0.0500  -0.1504   0.0901  -0.0561   0.0182  -0.0428   0.1016
 274 C   :3d0    0.0134   0.0090   0.0018  -0.0204   0.0039  -0.0183   0.0025
 275 C   :3d1+  -0.0035  -0.0295   0.0171  -0.0085   0.0029   0.0215   0.0349
 276 C   :3d2+  -0.0031  -0.0126  -0.0045   0.0811  -0.0094   0.0015  -0.1351
 278 C   :1s     0.0059   0.0094   0.0057   0.0060   0.0028   0.0354  -0.0386
 279 C   :1s     0.0776  -0.0303   0.0083  -0.0367   0.0181   0.0378   0.1060
 280 C   :1s     0.2269   0.5274   0.1222  -0.2875  -0.1303   0.1978  -0.1242
 281 C   :2px   -0.0403  -0.0273   0.0964  -0.0707   0.0039  -0.0177   0.0940
 282 C   :2py   -0.0155  -0.0067   0.0934  -0.2369   0.0170   0.0255   0.1023
 283 C   :2pz   -0.0232  -0.0643   0.0746  -0.2193   0.0100  -0.0080   0.0047
 284 C   :2px   -0.1015  -0.2331  -0.0567  -0.0277  -0.0219  -0.2215   0.1493
 285 C   :2py    0.0886   0.2435  -0.0866   0.0225  -0.0102   0.0875  -0.1103
 286 C   :2pz   -0.0227  -0.1052   0.0397   0.0268   0.0039  -0.0059   0.0397
 287 C   :2px   -0.0759  -0.3848  -0.2058   0.1524  -0.1138  -0.1397  -0.0045
 288 C   :2py    0.0227   0.0610   0.0554  -0.0190   0.0527   0.0121   0.0772
 289 C   :2pz    0.0412   0.1750   0.0822  -0.0533   0.0381   0.0707  -0.0980
 290 C   :3d2-  -0.0032  -0.0024   0.0059  -0.0017   0.0017  -0.0055   0.0183
 292 C   :3d0   -0.0013  -0.0040  -0.0017   0.0018   0.0011  -0.0139   0.0152
 293 C   :3d1+  -0.0004  -0.0015  -0.0063   0.0097  -0.0021   0.0155  -0.0030
 294 C   :3d2+   0.0029   0.0093   0.0039  -0.0062   0.0018   0.0025   0.0197
 295 C   :3d2-   0.0365   0.0172  -0.0347   0.0008   0.0011  -0.0453   0.0389
 296 C   :3d1-  -0.0052  -0.0520   0.0217   0.0213  -0.0090  -0.0003  -0.0093
 297 C   :3d0   -0.0008   0.0279  -0.0176  -0.0108  -0.0007  -0.0122   0.0145
 298 C   :3d1+  -0.0016   0.0448   0.0106   0.0064   0.0059   0.0807  -0.0440
 299 C   :3d2+  -0.0226  -0.1193   0.0522   0.0435  -0.0206  -0.0296   0.0413
 301 C   :1s    -0.0181  -0.0227   0.0503   0.0087   0.0026   0.0113   0.0176
 302 C   :1s     0.0161   0.0988  -0.0518   0.0229   0.0122   0.0048  -0.0126
 303 C   :1s     0.1856   0.0654  -0.2952  -0.2046  -0.0065  -0.1590   0.0906
 304 C   :2px    0.2788   0.2052   0.2429   0.2475  -0.0078   0.0042  -0.0989
 305 C   :2py   -0.2051  -0.0826   0.0640   0.0187   0.0004   0.0682   0.0110
 306 C   :2pz    0.2956  -0.2401   0.0195  -0.0240   0.0157  -0.1741   0.0515
 307 C   :2px   -0.0395  -0.0305  -0.0586  -0.0340   0.0007  -0.0222  -0.0014
 308 C   :2py    0.0370   0.0599  -0.0226   0.0306   0.0103   0.0090  -0.0044
 309 C   :2pz   -0.0433   0.0744  -0.0158   0.0148  -0.0032   0.0291  -0.0171
 310 C   :2px    0.0096   0.0156   0.0198   0.0334   0.0074  -0.0007  -0.0080
 311 C   :2py    0.0115   0.0031  -0.0394  -0.0196  -0.0075  -0.0216   0.0069
 312 C   :2pz    0.0246   0.0128   0.0014  -0.0319   0.0032  -0.0052   0.0133
 313 C   :3d2-  -0.0154  -0.0133  -0.0092  -0.0124   0.0007   0.0013   0.0085
 314 C   :3d1-  -0.0128   0.0126   0.0006  -0.0004  -0.0011   0.0200   0.0001
 317 C   :3d2+  -0.0105  -0.0032  -0.0062  -0.0035  -0.0002   0.0070   0.0002
 318 C   :3d2-  -0.0132  -0.0140  -0.0209  -0.0198   0.0004  -0.0102   0.0054
 319 C   :3d1-  -0.0106   0.0195  -0.0034   0.0035  -0.0025   0.0221  -0.0011
 322 C   :3d2+  -0.0054   0.0022  -0.0101  -0.0044  -0.0024   0.0054  -0.0041
 324 C   :1s    -0.0104  -0.0188  -0.0112  -0.0202   0.0014  -0.0261   0.0187
 325 C   :1s    -0.0083   0.0603   0.0626   0.0256  -0.0013   0.1434   0.0092
 326 C   :1s     0.1432   0.3699   0.1543   0.0890  -0.0911   0.0411  -0.0439
 327 C   :2px    0.0477   0.1155  -0.0489   0.0184  -0.0035   0.0068  -0.0345
 328 C   :2py   -0.0788  -0.1635   0.4702   0.1850   0.0065  -0.0050   0.0110
 329 C   :2pz   -0.4200   0.1632   0.0244   0.1225   0.0013  -0.1785  -0.0345
 330 C   :2px    0.0005  -0.0528  -0.0078  -0.0170   0.0008  -0.0731   0.0090
 331 C   :2py    0.0118   0.0508  -0.0938  -0.0183  -0.0011  -0.0034  -0.0092
 332 C   :2pz    0.0630  -0.0432   0.0110  -0.0112   0.0023   0.0289   0.0127
 333 C   :2px   -0.0125  -0.0176  -0.0207  -0.0181   0.0087  -0.0048   0.0121
 334 C   :2py   -0.0073  -0.0609   0.0203   0.0392   0.0066  -0.0192  -0.0101
 335 C   :2pz   -0.0229   0.0139   0.0026   0.0070  -0.0038  -0.0050  -0.0164
 336 C   :3d2-  -0.0081  -0.0107   0.0239   0.0099   0.0005   0.0012   0.0029
 339 C   :3d1+  -0.0190   0.0063   0.0020   0.0087   0.0003  -0.0206  -0.0051
 340 C   :3d2+   0.0003   0.0050  -0.0101  -0.0026  -0.0001  -0.0048  -0.0020
 341 C   :3d2-  -0.0075  -0.0187   0.0285   0.0090   0.0004  -0.0023   0.0042
 344 C   :3d1+  -0.0145   0.0171  -0.0065   0.0037  -0.0009  -0.0210  -0.0123
 347 C   :1s    -0.0005  -0.0157  -0.0267   0.0291   0.0019   0.0095  -0.0148
 348 C   :1s     0.0091  -0.1590  -0.0193   0.0377  -0.0006  -0.0385  -0.0652
 349 C   :1s    -0.1898  -0.1807   0.0178   0.3429   0.2456   0.0445  -0.1601
 350 C   :2px    0.0160  -0.0119   0.0410  -0.0636   0.0098   0.2811   0.0592
 351 C   :2py    0.0666   0.1109   0.0357  -0.1034   0.0061  -0.1052   0.0481
 352 C   :2pz    0.0235   0.1023  -0.0804   0.0325   0.0142   0.0795  -0.0027
 353 C   :2px   -0.0029  -0.1021  -0.0178   0.0679   0.0375  -0.0783   0.1097
 354 C   :2py   -0.0318  -0.0353  -0.0647  -0.0219  -0.0148   0.0660   0.0993
 355 C   :2pz   -0.0575   0.0488   0.0339  -0.1311  -0.0512   0.0775  -0.0465
 356 C   :2px   -0.0155   0.1123   0.0540  -0.0841   0.0118   0.1023   0.0370
 357 C   :2py    0.0150   0.0151  -0.1278   0.0900  -0.1237   0.0226  -0.0754
 358 C   :2pz   -0.0030  -0.1340  -0.1514   0.2164   0.0297  -0.0304  -0.1184
 360 C   :3d1-   0.0024   0.0046  -0.0051   0.0054  -0.0005  -0.0132  -0.0055
 364 C   :3d2-   0.0713   0.1174  -0.0808   0.0650  -0.0097   0.0100  -0.0858
 365 C   :3d1-  -0.0841  -0.1476   0.1382  -0.1169   0.0113  -0.0134   0.0884
 366 C   :3d0   -0.0414  -0.0631  -0.0175   0.0179   0.0001  -0.0007   0.0261
 367 C   :3d1+   0.0095   0.0040   0.0423  -0.0274   0.0101  -0.0267   0.0078
 368 C   :3d2+   0.0035   0.0342  -0.0550   0.0158  -0.0219   0.0173  -0.0167
 370 C   :1s    -0.0097   0.0041  -0.0163  -0.0289   0.0004   0.0317   0.0185
 371 C   :1s    -0.0493  -0.1163   0.1488  -0.1665  -0.0013  -0.0087   0.0595
 372 C   :1s     0.0568  -0.2696   0.1805   0.0227   0.0645   0.1216   0.0446
 373 C   :2px   -0.0106   0.0339  -0.0284   0.0309  -0.0281   0.0201  -0.0720
 374 C   :2py   -0.0226  -0.1198   0.0277   0.0890   0.0071  -0.0465  -0.0241
 375 C   :2pz    0.0135  -0.0970   0.1257  -0.0374  -0.0151   0.0753   0.0056
 376 C   :2px    0.0419  -0.0190  -0.0702   0.0813   0.0169  -0.0123   0.0140
 377 C   :2py    0.0223   0.0139  -0.1255   0.0202   0.0139  -0.0379   0.0717
 378 C   :2pz   -0.0731   0.0096   0.0461  -0.0894  -0.0035  -0.0246   0.0159
 379 C   :2px   -0.0108  -0.0047   0.0663  -0.0260   0.0041   0.0443   0.0182
 380 C   :2py   -0.0021  -0.0167   0.1856  -0.1150   0.0271   0.1222   0.0783
 381 C   :2pz    0.0268  -0.0189  -0.0269  -0.0017  -0.0168  -0.0456  -0.0028
 383 C   :3d1-   0.0010   0.0076  -0.0055   0.0004  -0.0008  -0.0108  -0.0027
 387 C   :3d2-   0.0132   0.0570  -0.0330  -0.0031  -0.0025  -0.0013  -0.0169
 388 C   :3d1-  -0.0011  -0.0580   0.0192  -0.0020   0.0027  -0.0051   0.0272
 389 C   :3d0   -0.0298  -0.0430   0.0362  -0.0049   0.0014   0.0052   0.0045
 390 C   :3d1+   0.0184   0.0037  -0.0167   0.0121   0.0052  -0.0040   0.0081
 391 C   :3d2+  -0.0284  -0.0133   0.0251  -0.0182  -0.0020   0.0107  -0.0047
 393 C   :1s     0.0095   0.0119  -0.0198   0.0298   0.0056  -0.0389  -0.0007
 394 C   :1s     0.1131   0.1764  -0.1121   0.0950  -0.0011  -0.0623  -0.0947
 395 C   :1s     0.1149   0.3750   0.0629  -0.3276   0.0090  -0.0834   0.0922
 396 C   :2px    0.0092   0.0655  -0.0597  -0.0205   0.0302   0.0371   0.0572
 397 C   :2py   -0.0715  -0.1342   0.0502  -0.0166  -0.0120   0.0496  -0.0256
 398 C   :2pz   -0.0125  -0.0563   0.0326   0.0065   0.0114   0.0995   0.0634
 399 C   :2px    0.0353   0.0557  -0.0349   0.0577  -0.0126   0.0081  -0.0273
 400 C   :2py   -0.0354   0.0299  -0.0209  -0.0565  -0.0474   0.0173   0.0168
 401 C   :2pz   -0.0703  -0.0719   0.0628  -0.1280  -0.0111  -0.0010   0.0436
 402 C   :2px    0.0265   0.0512   0.0343  -0.0359   0.0004  -0.0168   0.0297
 403 C   :2py    0.0277   0.0395  -0.1260   0.0461   0.0077  -0.1443  -0.0679
 404 C   :2pz   -0.0073  -0.0455  -0.0747   0.0752   0.0100  -0.0419  -0.0502
 410 C   :3d2-  -0.0057   0.0101  -0.0145  -0.0153  -0.0029  -0.0040   0.0027
 411 C   :3d1-  -0.0039  -0.0412   0.0420   0.0174   0.0133  -0.0099   0.0245
 412 C   :3d0    0.0136   0.0029  -0.0244   0.0375   0.0036  -0.0037  -0.0164
 413 C   :3d1+  -0.0071  -0.0185   0.0216  -0.0160   0.0034  -0.0038   0.0168
 414 C   :3d2+   0.0145   0.0187  -0.0384   0.0276   0.0001   0.0039  -0.0235
 416 C   :1s     0.0050  -0.0060  -0.0020   0.0213  -0.0005  -0.0141  -0.0110
 417 C   :1s    -0.0301   0.0216   0.0164   0.0238   0.0090   0.0235  -0.0426
 418 C   :1s    -0.1230   0.0260  -0.1767   0.1277  -0.0434  -0.1348  -0.0889
 419 C   :2px    0.0164   0.0144   0.0442  -0.0561  -0.0461  -0.1518  -0.0677
 420 C   :2py    0.0282   0.1114  -0.0292  -0.0638   0.0130   0.0540   0.0480
 421 C   :2pz    0.0102   0.1036  -0.0626  -0.0046  -0.0272  -0.1208  -0.0577
 422 C   :2px   -0.0172  -0.0193  -0.0022   0.0054  -0.0018  -0.0048   0.0117
 423 C   :2py    0.0372   0.0032  -0.1028   0.0451   0.0140  -0.0413   0.0285
 424 C   :2pz    0.0421   0.0170  -0.0279   0.0190   0.0151   0.0217   0.0068
 425 C   :2px    0.0179   0.0105  -0.0160  -0.0012  -0.0021  -0.0050  -0.0043
 426 C   :2py   -0.0122  -0.0150   0.1147  -0.0513   0.0120   0.1070   0.0456
 427 C   :2pz   -0.0357  -0.0139   0.0691  -0.0229   0.0085   0.0492   0.0164
 433 C   :3d2-  -0.0043   0.0213  -0.0105   0.0001  -0.0027   0.0008  -0.0123
 434 C   :3d1-   0.0031  -0.0314   0.0198  -0.0125   0.0044   0.0021   0.0187
 435 C   :3d0    0.0056  -0.0068  -0.0149   0.0063   0.0028  -0.0077   0.0053
 436 C   :3d1+  -0.0044   0.0035   0.0140  -0.0134  -0.0024   0.0030   0.0012
 437 C   :3d2+   0.0051   0.0046  -0.0231   0.0126   0.0011  -0.0049  -0.0037
 439 C   :1s    -0.0100  -0.0112   0.0042  -0.0110   0.0001   0.0181   0.0004
 440 C   :1s     0.0144  -0.0542   0.0382   0.0203   0.0148   0.0155  -0.0199
 441 C   :1s    -0.1558  -0.2938   0.1119   0.0762  -0.0400   0.0784   0.0098
 442 C   :2px    0.0285   0.0515  -0.0107  -0.0346   0.0004  -0.1578   0.0297
[...]
 66   YDIPLEN   ZDIPLEN    0.110000       -2.131421       -0.022405

      Averaged value       0.110000      163.189043       38.945261

 67   XDIPLEN   XDIPLEN    0.111000       18.835374       89.947498
 68   YDIPLEN   YDIPLEN    0.111000      298.044844       13.718684
 69   ZDIPLEN   ZDIPLEN    0.111000      193.833591        2.765489
 70   XDIPLEN   YDIPLEN    0.111000       52.244303      -21.274909
 71   XDIPLEN   ZDIPLEN    0.111000      -11.180110        1.114715
 72   YDIPLEN   ZDIPLEN    0.111000       -2.129373        0.067899

      Averaged value       0.111000      170.237936       35.477224

 73   XDIPLEN   XDIPLEN    0.112000       35.134194       81.334006
 74   YDIPLEN   YDIPLEN    0.112000      300.897790       13.646498
 75   ZDIPLEN   ZDIPLEN    0.112000      194.425897        2.787148
 76   XDIPLEN   YDIPLEN    0.112000       48.266707      -19.543583
 77   XDIPLEN   ZDIPLEN    0.112000      -10.886204        1.196669
 78   YDIPLEN   ZDIPLEN    0.112000       -2.107246        0.159312

      Averaged value       0.112000      176.819294       32.589217

 79   XDIPLEN   XDIPLEN    0.113000       50.184835       74.036871
 80   YDIPLEN   YDIPLEN    0.113000      303.760391       13.660927
 81   ZDIPLEN   ZDIPLEN    0.113000      195.025622        2.818741
 82   XDIPLEN   YDIPLEN    0.113000       44.546780      -18.082096
 83   XDIPLEN   ZDIPLEN    0.113000      -10.589048        1.261331
 84   YDIPLEN   ZDIPLEN    0.113000       -2.065311        0.252187

      Averaged value       0.113000      182.990283       30.172180

 85   XDIPLEN   XDIPLEN    0.114000       64.129876       67.812943
 86   YDIPLEN   YDIPLEN    0.114000      306.645909       13.754482
 87   ZDIPLEN   ZDIPLEN    0.114000      195.634342        2.859552
 88   XDIPLEN   YDIPLEN    0.114000       41.052175      -16.844516
 89   XDIPLEN   ZDIPLEN    0.114000      -10.288148        1.314304
 90   YDIPLEN   ZDIPLEN    0.114000       -2.003568        0.347068

      Averaged value       0.114000      188.803376       28.142326

 91   XDIPLEN   XDIPLEN    0.115000       77.097088       62.472958
 92   YDIPLEN   YDIPLEN    0.115000      309.567264       13.922109
 93   ZDIPLEN   ZDIPLEN    0.115000      196.253611        2.909128
 94   XDIPLEN   YDIPLEN    0.115000       37.753787      -15.794974
 95   XDIPLEN   ZDIPLEN    0.115000       -9.983105        1.359718
 96   YDIPLEN   ZDIPLEN    0.115000       -1.921783        0.444645

      Averaged value       0.115000      194.305988       26.434732

 97   XDIPLEN   XDIPLEN    0.116000       89.199875       57.868162
 98   YDIPLEN   YDIPLEN    0.116000      312.537178       14.160760
 99   ZDIPLEN   ZDIPLEN    0.116000      196.884982        2.967230
100   XDIPLEN   YDIPLEN    0.116000       34.625515      -14.905263
101   XDIPLEN   ZDIPLEN    0.116000       -9.673508        1.400661
102   YDIPLEN   ZDIPLEN    0.116000       -1.819511        0.545733

      Averaged value       0.116000      199.540678       24.998717

103   XDIPLEN   XDIPLEN    0.117000      100.538459       53.880583
104   YDIPLEN   YDIPLEN    0.117000      315.568348       14.469110
105   ZDIPLEN   ZDIPLEN    0.117000      197.530019        3.033808
106   XDIPLEN   YDIPLEN    0.117000       31.643936      -14.153087
107   XDIPLEN   ZDIPLEN    0.117000       -9.358877        1.439485
108   YDIPLEN   ZDIPLEN    0.117000       -1.696097        0.651265

      Averaged value       0.117000      204.545609       23.794500

109   XDIPLEN   XDIPLEN    0.118000      111.201319       50.415904
110   YDIPLEN   YDIPLEN    0.118000      318.673627       14.847368
111   ZDIPLEN   ZDIPLEN    0.118000      198.190325        3.108981
112   XDIPLEN   YDIPLEN    0.118000       28.787950      -13.520774
113   XDIPLEN   ZDIPLEN    0.118000       -9.038639        1.478020
114   YDIPLEN   ZDIPLEN    0.118000       -1.550674        0.762297

      Averaged value       0.118000      209.355091       22.790751

115   XDIPLEN   XDIPLEN    0.119000      121.266664       47.398181
116   YDIPLEN   YDIPLEN    0.119000      321.866202       15.297175
117   ZDIPLEN   ZDIPLEN    0.119000      198.867557        3.193024
118   XDIPLEN   YDIPLEN    0.119000       26.038427      -12.994323
119   XDIPLEN   ZDIPLEN    0.119000       -8.712120        1.517729
120   YDIPLEN   ZDIPLEN    0.119000       -1.382156        0.880021

      Averaged value       0.119000      214.000141       21.962793

121   XDIPLEN   XDIPLEN    0.120000      130.803819       44.765891
122   YDIPLEN   YDIPLEN    0.120000      325.159796       15.821575
123   ZDIPLEN   ZDIPLEN    0.120000      199.563449        3.286372
124   XDIPLEN   YDIPLEN    0.120000       23.377884      -12.562692
125   XDIPLEN   ZDIPLEN    0.120000       -8.378533        1.559822
126   YDIPLEN   ZDIPLEN    0.120000       -1.189217        1.005791

      Averaged value       0.120000      218.509021       21.291280

127   XDIPLEN   XDIPLEN    0.121000      139.874482       42.468967
128   YDIPLEN   YDIPLEN    0.121000      328.568862       16.425042
129   ZDIPLEN   ZDIPLEN    0.121000      200.279836        3.389620
130   XDIPLEN   YDIPLEN    0.121000       20.790188      -12.217276
131   XDIPLEN   ZDIPLEN    0.121000       -8.036982        1.605339
132   YDIPLEN   ZDIPLEN    0.121000       -0.970271        1.141150

      Averaged value       0.121000      222.907727       20.761210

133   XDIPLEN   XDIPLEN    0.122000      148.533846       40.466532
134   YDIPLEN   YDIPLEN    0.122000      332.108810       17.113571
135   ZDIPLEN   ZDIPLEN    0.122000      201.018681        3.503535
136   XDIPLEN   YDIPLEN    0.122000       18.260284      -11.951511
137   XDIPLEN   ZDIPLEN    0.122000       -7.686457        1.655211
138   YDIPLEN   ZDIPLEN    0.122000       -0.723445        1.287876

      Averaged value       0.122000      227.220445       20.361213

139   XDIPLEN   XDIPLEN    0.123000      156.831577       38.725180
140   YDIPLEN   YDIPLEN    0.123000      335.796237       17.894831
141   ZDIPLEN   ZDIPLEN    0.123000      201.782097        3.629078
142   XDIPLEN   YDIPLEN    0.123000       15.773946      -11.760592
143   XDIPLEN   ZDIPLEN    0.123000       -7.325825        1.710315
144   YDIPLEN   ZDIPLEN    0.123000       -0.446540        1.448030

      Averaged value       0.123000      231.469970       20.083030

145   XDIPLEN   XDIPLEN    0.124000      164.812861       37.217741
146   YDIPLEN   YDIPLEN    0.124000      339.649194       18.778389
147   ZDIPLEN   ZDIPLEN    0.124000      202.572386        3.767423
148   XDIPLEN   YDIPLEN    0.124000       13.317550      -11.641279
149   XDIPLEN   ZDIPLEN    0.124000       -6.953833        1.771505
150   YDIPLEN   ZDIPLEN    0.124000       -0.136996        1.624023

      Averaged value       0.124000      235.678147       19.921184

151   XDIPLEN   XDIPLEN    0.125000      172.518443       35.921948
152   YDIPLEN   YDIPLEN    0.125000      343.687479       19.776015
153   ZDIPLEN   ZDIPLEN    0.125000      203.392062        3.919997
154   XDIPLEN   YDIPLEN    0.125000       10.877858      -11.591758
155   XDIPLEN   ZDIPLEN    0.125000       -6.569087        1.839657
156   YDIPLEN   ZDIPLEN    0.125000        0.208169        1.818702

      Averaged value       0.125000      239.865995       19.872654

157   XDIPLEN   XDIPLEN    0.126000      179.986350       34.820127
158   YDIPLEN   YDIPLEN    0.126000      347.932971       20.902082
159   ZDIPLEN   ZDIPLEN    0.126000      204.243902        4.088525
160   XDIPLEN   YDIPLEN    0.126000        8.441813      -11.611584
161   XDIPLEN   ZDIPLEN    0.126000       -6.170048        1.915687
162   YDIPLEN   ZDIPLEN    0.126000        0.592411        2.035453

      Averaged value       0.126000      244.054408       19.936911

163   XDIPLEN   XDIPLEN    0.127000      187.251798       33.898324
164   YDIPLEN   YDIPLEN    0.127000      352.410010       22.174097
165   ZDIPLEN   ZDIPLEN    0.127000      205.130981        4.275087
166   XDIPLEN   YDIPLEN    0.127000        5.996334      -11.701658
167   XDIPLEN   ZDIPLEN    0.127000       -5.755016        2.000592
168   YDIPLEN   ZDIPLEN    0.127000        1.019738        2.278339

      Averaged value       0.127000      248.264263       20.115836

169   XDIPLEN   XDIPLEN    0.128000      194.347895       33.145960
170   YDIPLEN   YDIPLEN    0.128000      357.145835       23.613384
171   ZDIPLEN   ZDIPLEN    0.128000      206.056729        4.482196
172   XDIPLEN   YDIPLEN    0.128000        3.528120      -11.864283
173   XDIPLEN   ZDIPLEN    0.128000       -5.322104        2.095467
174   YDIPLEN   ZDIPLEN    0.128000        1.494790        2.552275

      Averaged value       0.128000      252.516820       20.413847

175   XDIPLEN   XDIPLEN    0.129000      201.306139       32.555539
176   YDIPLEN   YDIPLEN    0.129000      362.171091       25.245985
177   ZDIPLEN   ZDIPLEN    0.129000      207.024987        4.712899
178   XDIPLEN   YDIPLEN    0.129000        1.023432      -12.103257
179   XDIPLEN   ZDIPLEN    0.129000       -4.869221        2.201542
180   YDIPLEN   ZDIPLEN    0.129000        2.022946        2.863254

      Averaged value       0.129000      256.834072       20.838141

181   XDIPLEN   XDIPLEN    0.130000      208.156877       32.122484
182   YDIPLEN   YDIPLEN    0.130000      367.520396       27.103823
183   ZDIPLEN   ZDIPLEN    0.130000      208.040075        4.970904
184   XDIPLEN   YDIPLEN    0.130000       -1.532119      -12.424051
185   XDIPLEN   ZDIPLEN    0.130000       -4.394039        2.320211
186   YDIPLEN   ZDIPLEN    0.130000        2.610432        3.218646

      Averaged value       0.130000      261.239116       21.399070

187   XDIPLEN   XDIPLEN    0.131000      214.929745       31.845082
188   YDIPLEN   YDIPLEN    0.131000      373.233003       29.226243
189   ZDIPLEN   ZDIPLEN    0.131000      209.106870        5.260750
190   XDIPLEN   YDIPLEN    0.131000       -4.153809      -12.834051
191   XDIPLEN   ZDIPLEN    0.131000       -3.893962        2.453065
192   YDIPLEN   ZDIPLEN    0.131000        3.264452        3.627596

      Averaged value       0.131000      265.756539       22.110692

193   XDIPLEN   XDIPLEN    0.132000      221.654106       31.724545
194   YDIPLEN   YDIPLEN    0.132000      379.353520       31.662051
195   ZDIPLEN   ZDIPLEN    0.132000      210.230890        5.588033
196   XDIPLEN   YDIPLEN    0.132000       -6.858058      -13.342917
197   XDIPLEN   ZDIPLEN    0.132000       -3.366079        2.601934
198   YDIPLEN   ZDIPLEN    0.132000        3.993335        4.101544

      Averaged value       0.132000      270.412839       22.991543

199   XDIPLEN   XDIPLEN    0.133000      228.359477       31.765193
200   YDIPLEN   YDIPLEN    0.133000      385.932702       34.472233
201   ZDIPLEN   ZDIPLEN    0.133000      211.418389        5.959701
202   XDIPLEN   YDIPLEN    0.133000       -9.662704      -13.963050
203   XDIPLEN   ZDIPLEN    0.133000       -2.807114        2.768933
204   YDIPLEN   ZDIPLEN    0.133000        4.806673        4.654941

      Averaged value       0.133000      275.236856       24.065709

205   XDIPLEN   XDIPLEN    0.134000      235.075975       31.974774
206   YDIPLEN   YDIPLEN    0.134000      393.028240       37.733625
207   ZDIPLEN   ZDIPLEN    0.134000      212.676454        6.384453
208   XDIPLEN   YDIPLEN    0.134000      -12.587304      -14.710240
209   XDIPLEN   ZDIPLEN    0.134000       -2.213363        2.956506
210   YDIPLEN   ZDIPLEN    0.134000        5.715460        5.306213

      Averaged value       0.134000      280.260223       25.364284

211   XDIPLEN   XDIPLEN    0.135000      241.834779       32.364962
212   YDIPLEN   YDIPLEN    0.135000      400.705466       41.543903
213   ZDIPLEN   ZDIPLEN    0.135000      214.013095        6.873283
214   XDIPLEN   YDIPLEN    0.135000      -15.653448      -15.604537
215   XDIPLEN   ZDIPLEN    0.135000       -1.580606        3.167490
216   YDIPLEN   ZDIPLEN    0.135000        6.732175        6.079090

      Averaged value       0.135000      285.517780       26.927383

217   XDIPLEN   XDIPLEN    0.136000      248.668614       32.952061
218   YDIPLEN   YDIPLEN    0.136000      409.037744       46.028444
219   ZDIPLEN   ZDIPLEN    0.136000      215.437306        7.440219
220   XDIPLEN   YDIPLEN    0.136000      -18.885085      -16.671426
221   XDIPLEN   ZDIPLEN    0.136000       -0.904006        3.405169
222   YDIPLEN   ZDIPLEN    0.136000        7.870742        7.004446

      Averaged value       0.136000      291.047888       28.806908

223   XDIPLEN   XDIPLEN    0.137000      255.612315       33.758173
224   YDIPLEN   YDIPLEN    0.137000      418.106159       51.349832
225   ZDIPLEN   ZDIPLEN    0.137000      216.959058        8.103347
226   XDIPLEN   YDIPLEN    0.137000      -22.308797      -17.943433
227   XDIPLEN   ZDIPLEN    0.137000       -0.177958        3.673348
228   YDIPLEN   ZDIPLEN    0.137000        9.146252        8.122885

      Averaged value       0.137000      296.892510       31.070451

229   XDIPLEN   XDIPLEN    0.138000      262.703159       34.811877
230   YDIPLEN   YDIPLEN    0.138000      427.997704       57.721143
231   ZDIPLEN   ZDIPLEN    0.138000      218.589139        8.886242
232   XDIPLEN   YDIPLEN    0.138000      -25.953986      -19.462317
233   XDIPLEN   ZDIPLEN    0.138000        0.604116        3.976408
234   YDIPLEN   ZDIPLEN    0.138000       10.574180        9.488373

      Averaged value       0.138000      303.096667       33.806421

235   XDIPLEN   XDIPLEN    0.139000      269.981688       36.151029
236   YDIPLEN   YDIPLEN    0.139000      438.800506       65.424621
237   ZDIPLEN   ZDIPLEN    0.139000      220.338701        9.819959
238   XDIPLEN   YDIPLEN    0.139000      -29.852787      -21.282106
239   XDIPLEN   ZDIPLEN    0.139000        1.450072        4.319373
240   YDIPLEN   ZDIPLEN    0.139000       12.168636       11.173399

      Averaged value       0.139000      309.706965       37.131870

241   XDIPLEN   XDIPLEN    0.140000      277.491985       37.824718
242   YDIPLEN   YDIPLEN    0.140000      450.593264       74.837944
243   ZDIPLEN   ZDIPLEN    0.140000      222.218205       10.945848
244   XDIPLEN   YDIPLEN    0.140000      -34.039451      -23.473285
245   XDIPLEN   ZDIPLEN    0.140000        2.369528        4.707955
246   YDIPLEN   ZDIPLEN    0.140000       13.938772       13.276266

      Averaged value       0.140000      316.767818       41.202837

247   XDIPLEN   XDIPLEN    0.141000      285.282019       39.896913
248   YDIPLEN   YDIPLEN    0.141000      463.423611       86.470897
249   ZDIPLEN   ZDIPLEN    0.141000      224.235246       12.319462
250   XDIPLEN   YDIPLEN    0.141000      -38.548635      -26.128604
251   XDIPLEN   ZDIPLEN    0.141000        3.374649        5.148594
252   YDIPLEN   ZDIPLEN    0.141000       15.881679       15.931315

      Averaged value       0.141000      324.313625       46.229091

253   XDIPLEN   XDIPLEN    0.142000      293.403547       42.451309
254   YDIPLEN   YDIPLEN    0.142000      477.265336      101.015307
255   ZDIPLEN   ZDIPLEN    0.142000      226.390201       14.015884
256   XDIPLEN   YDIPLEN    0.142000      -43.411570      -29.371016
257   XDIPLEN   ZDIPLEN    0.142000        4.481490        5.648528
258   YDIPLEN   ZDIPLEN    0.142000       17.968621       19.322825

      Averaged value       0.142000      332.353028       52.494167

259   XDIPLEN   XDIPLEN    0.143000      301.911198       45.598031
260   YDIPLEN   YDIPLEN    0.143000      491.935677      119.408890
261   ZDIPLEN   ZDIPLEN    0.143000      228.667777       16.136568
262   XDIPLEN   YDIPLEN    0.143000      -48.648143      -33.364202
263   XDIPLEN   ZDIPLEN    0.143000        5.712376        6.216057
264   YDIPLEN   ZDIPLEN    0.143000       20.118725       23.702544

      Averaged value       0.143000      340.838217       60.381163

265   XDIPLEN   XDIPLEN    0.144000      310.859744       49.483029
266   YDIPLEN   YDIPLEN    0.144000      506.938574      142.904249
267   ZDIPLEN   ZDIPLEN    0.144000      231.020956       18.816815
268   XDIPLEN   YDIPLEN    0.144000      -54.251333      -38.325392
269   XDIPLEN   ZDIPLEN    0.144000        7.100136        6.861522
270   YDIPLEN   ZDIPLEN    0.144000       22.149461       29.407728

      Averaged value       0.144000      349.606425       70.401364

271   XDIPLEN   XDIPLEN    0.145000      320.299044       54.299905
272   YDIPLEN   YDIPLEN    0.145000      521.176588      173.104889
273   ZDIPLEN   ZDIPLEN    0.145000      233.341449       22.230058
274   XDIPLEN   YDIPLEN    0.145000      -60.157956      -44.537719
275   XDIPLEN   ZDIPLEN    0.145000        8.695579        7.600514
276   YDIPLEN   ZDIPLEN    0.145000       23.686119       36.866964

      Averaged value       0.145000      358.272360       83.211617

277   XDIPLEN   XDIPLEN    0.146000      330.262144       60.306990
278   YDIPLEN   YDIPLEN    0.146000      532.456982      211.850684
279   ZDIPLEN   ZDIPLEN    0.146000      235.408847       26.577029
280   XDIPLEN   YDIPLEN    0.146000      -66.197385      -52.352189
281   XDIPLEN   ZDIPLEN    0.146000       10.579831        8.463339
282   YDIPLEN   ZDIPLEN    0.146000       24.006917       46.555628

      Averaged value       0.146000      366.042658       99.578234

283   XDIPLEN   XDIPLEN    0.147000      340.745342       67.845983
284   YDIPLEN   YDIPLEN    0.147000      536.765551      260.659554
285   ZDIPLEN   ZDIPLEN    0.147000      236.815875       32.029857
286   XDIPLEN   YDIPLEN    0.147000      -72.013282      -62.153273
287   XDIPLEN   ZDIPLEN    0.147000       12.881027        9.520199
288   YDIPLEN   ZDIPLEN    0.147000       21.817754       58.806071

      Averaged value       0.147000      371.442256      120.178465

289   XDIPLEN   XDIPLEN    0.148000      351.674808       77.361385
290   YDIPLEN   YDIPLEN    0.148000      527.632410      319.166389
291   ZDIPLEN   ZDIPLEN    0.148000      236.902267       38.574182
292   XDIPLEN   YDIPLEN    0.148000      -76.983858      -74.237358
293   XDIPLEN   ZDIPLEN    0.148000       15.783482       10.939477
294   YDIPLEN   ZDIPLEN    0.148000       15.062269       73.293243

      Averaged value       0.148000      372.069828      145.033985

295   XDIPLEN   XDIPLEN    0.149000      362.860580       89.417485
296   YDIPLEN   YDIPLEN    0.149000      496.940155      382.125271
297   ZDIPLEN   ZDIPLEN    0.149000      234.834904       45.704918
298   XDIPLEN   YDIPLEN    0.149000      -80.257940      -88.564178
299   XDIPLEN   ZDIPLEN    0.149000       19.484621       13.092446
300   YDIPLEN   ZDIPLEN    0.149000        1.205256       88.056367

      Averaged value       0.149000      364.878546      172.415891

301   XDIPLEN   XDIPLEN    0.150000      373.936705      104.722362
302   YDIPLEN   YDIPLEN    0.150000      439.738266      436.665563
303   ZDIPLEN   ZDIPLEN    0.150000      230.095106       52.148278
304   XDIPLEN   YDIPLEN    0.150000      -81.130110     -104.535934
305   XDIPLEN   ZDIPLEN    0.150000       24.015213       16.652249
306   YDIPLEN   ZDIPLEN    0.150000      -21.180789       98.599384

      Averaged value       0.150000      347.923359      197.845401
 
 ------------------------------------------------------------------
 Damping parameter equals  0.004557 au = 0.1240 eV = 1000.1 cm-1

  Total CPU  time used in RESPONSE:  13 hours 45 minutes 35 seconds
  Total wall time used in RESPONSE:  13 hours 45 minutes 57 seconds


                   .-------------------------------------------.
                   | End of Dynamic Property Section (RESPONS) |
                   `-------------------------------------------'

  Total CPU  time used in DALTON:  19 hours 18 minutes 26 seconds
  Total wall time used in DALTON:  19 hours 19 minutes  1 second 

 
     Date and time (Linux)  : Wed Sep 11 04:00:52 2019
     Host name              : node358.cluster                         
