

     ************************************************************************
     *************** Dalton - An Electronic Structure Program ***************
     ************************************************************************

    This is output from DALTON release Dalton2016.1 (2016)
         ( Web site: http://daltonprogram.org )

   ----------------------------------------------------------------------------

    NOTE:
     
    Dalton is an experimental code for the evaluation of molecular
    properties using (MC)SCF, DFT, CI, and CC wave functions.
    The authors accept no responsibility for the performance of
    the code or for the correctness of the results.
     
    The code (in whole or part) is provided under a licence and
    is not to be reproduced for further distribution without
    the written permission of the authors or their representatives.
     
    See the home page "http://daltonprogram.org" for further information.
     
    If results obtained with this code are published,
    the appropriate citations would be both of:
     
       K. Aidas, C. Angeli, K. L. Bak, V. Bakken, R. Bast,
       L. Boman, O. Christiansen, R. Cimiraglia, S. Coriani,
       P. Dahle, E. K. Dalskov, U. Ekstroem,
       T. Enevoldsen, J. J. Eriksen, P. Ettenhuber, B. Fernandez,
       L. Ferrighi, H. Fliegl, L. Frediani, K. Hald, A. Halkier,
       C. Haettig, H. Heiberg, T. Helgaker, A. C. Hennum,
       H. Hettema, E. Hjertenaes, S. Hoest, I.-M. Hoeyvik,
       M. F. Iozzi, B. Jansik, H. J. Aa. Jensen, D. Jonsson,
       P. Joergensen, J. Kauczor, S. Kirpekar,
       T. Kjaergaard, W. Klopper, S. Knecht, R. Kobayashi, H. Koch,
       J. Kongsted, A. Krapp, K. Kristensen, A. Ligabue,
       O. B. Lutnaes, J. I. Melo, K. V. Mikkelsen, R. H. Myhre,
       C. Neiss, C. B. Nielsen, P. Norman, J. Olsen,
       J. M. H. Olsen, A. Osted, M. J. Packer, F. Pawlowski,
       T. B. Pedersen, P. F. Provasi, S. Reine, Z. Rinkevicius,
       T. A. Ruden, K. Ruud, V. Rybkin, P. Salek, C. C. M. Samson,
       A. Sanchez de Meras, T. Saue, S. P. A. Sauer,
       B. Schimmelpfennig, K. Sneskov, A. H. Steindal,
       K. O. Sylvester-Hvid, P. R. Taylor, A. M. Teale,
       E. I. Tellgren, D. P. Tew, A. J. Thorvaldsen, L. Thoegersen,
       O. Vahtras, M. A. Watson, D. J. D. Wilson, M. Ziolkowski
       and H. Agren,
       "The Dalton quantum chemistry program system",
       WIREs Comput. Mol. Sci. 2014, 4:269–284 (doi: 10.1002/wcms.1172)
     
    and
     
       Dalton, a Molecular Electronic Structure Program,
       Release Dalton2016.1 (2016), see http://daltonprogram.org
   ----------------------------------------------------------------------------

    Authors in alphabetical order (major contribution(s) in parenthesis):

  Kestutis Aidas,           Vilnius University,           Lithuania   (QM/MM)
  Celestino Angeli,         University of Ferrara,        Italy       (NEVPT2)
  Keld L. Bak,              UNI-C,                        Denmark     (AOSOPPA, non-adiabatic coupling, magnetic properties)
  Vebjoern Bakken,          University of Oslo,           Norway      (DALTON; geometry optimizer, symmetry detection)
  Radovan Bast,             UiT The Arctic U. of Norway,  Norway      (DALTON installation and execution frameworks)
  Pablo Baudin,             University of Valencia,       Spain       (Cholesky excitation energies)
  Linus Boman,              NTNU,                         Norway      (Cholesky decomposition and subsystems)
  Ove Christiansen,         Aarhus University,            Denmark     (CC module)
  Renzo Cimiraglia,         University of Ferrara,        Italy       (NEVPT2)
  Sonia Coriani,            University of Trieste,        Italy       (CC module, MCD in RESPONS)
  Janusz Cukras,            University of Trieste,        Italy       (MChD in RESPONS)
  Paal Dahle,               University of Oslo,           Norway      (Parallelization)
  Erik K. Dalskov,          UNI-C,                        Denmark     (SOPPA)
  Thomas Enevoldsen,        Univ. of Southern Denmark,    Denmark     (SOPPA)
  Janus J. Eriksen,         Aarhus University,            Denmark     (Polarizable embedding model, TDA)
  Rasmus Faber,             University of Copenhagen,     Denmark     (Vib.avg. NMR with SOPPA, parallel AO-SOPPA)
  Berta Fernandez,          U. of Santiago de Compostela, Spain       (doublet spin, ESR in RESPONS)
  Lara Ferrighi,            Aarhus University,            Denmark     (PCM Cubic response)
  Heike Fliegl,             University of Oslo,           Norway      (CCSD(R12))
  Luca Frediani,            UiT The Arctic U. of Norway,  Norway      (PCM)
  Bin Gao,                  UiT The Arctic U. of Norway,  Norway      (Gen1Int library)
  Christof Haettig,         Ruhr-University Bochum,       Germany     (CC module)
  Kasper Hald,              Aarhus University,            Denmark     (CC module)
  Asger Halkier,            Aarhus University,            Denmark     (CC module)
  Frederik Beyer Hansen,    University of Copenhagen,     Denmark     (Parallel AO-SOPPA)
  Erik D. Hedegaard,        Univ. of Southern Denmark,    Denmark     (Polarizable embedding model, QM/MM)
  Hanne Heiberg,            University of Oslo,           Norway      (geometry analysis, selected one-electron integrals)
  Trygve Helgaker,          University of Oslo,           Norway      (DALTON; ABACUS, ERI, DFT modules, London, and much more)
  Alf Christian Hennum,     University of Oslo,           Norway      (Parity violation)
  Hinne Hettema,            University of Auckland,       New Zealand (quadratic response in RESPONS; SIRIUS supersymmetry)
  Eirik Hjertenaes,         NTNU,                         Norway      (Cholesky decomposition)
  Maria Francesca Iozzi,    University of Oslo,           Norway      (RPA)
  Brano Jansik              Technical Univ. of Ostrava    Czech Rep.  (DFT cubic response)
  Hans Joergen Aa. Jensen,  Univ. of Southern Denmark,    Denmark     (DALTON; SIRIUS, RESPONS, ABACUS modules, London, and much more)
  Dan Jonsson,              UiT The Arctic U. of Norway,  Norway      (cubic response in RESPONS module)
  Poul Joergensen,          Aarhus University,            Denmark     (RESPONS, ABACUS, and CC modules)
  Maciej Kaminski,          University of Warsaw,         Poland      (CPPh in RESPONS)
  Joanna Kauczor,           Linkoeping University,        Sweden      (Complex polarization propagator (CPP) module)
  Sheela Kirpekar,          Univ. of Southern Denmark,    Denmark     (Mass-velocity & Darwin integrals)
  Wim Klopper,              KIT Karlsruhe,                Germany     (R12 code in CC, SIRIUS, and ABACUS modules)
  Stefan Knecht,            ETH Zurich,                   Switzerland (Parallel CI and MCSCF)
  Rika Kobayashi,           Australian National Univ.,    Australia   (DIIS in CC, London in MCSCF)
  Henrik Koch,              NTNU,                         Norway      (CC module, Cholesky decomposition)
  Jacob Kongsted,           Univ. of Southern Denmark,    Denmark     (Polarizable embedding model, QM/MM)
  Andrea Ligabue,           University of Modena,         Italy       (CTOCD, AOSOPPA)
  Nanna H. List             Univ. of Southern Denmark,    Denmark     (Polarizable embedding model)
  Ola B. Lutnaes,           University of Oslo,           Norway      (DFT Hessian)
  Juan I. Melo,             University of Buenos Aires,   Argentina   (LRESC, Relativistic Effects on NMR Shieldings)
  Kurt V. Mikkelsen,        University of Copenhagen,     Denmark     (MC-SCRF and QM/MM)
  Rolf H. Myhre,            NTNU,                         Norway      (Cholesky, subsystems and ECC2)
  Christian Neiss,          Univ. Erlangen-Nuernberg,     Germany     (CCSD(R12))
  Christian B. Nielsen,     University of Copenhagen,     Denmark     (QM/MM)
  Patrick Norman,           Linkoeping University,        Sweden      (Cubic response and complex frequency response in RESPONS)
  Jeppe Olsen,              Aarhus University,            Denmark     (SIRIUS CI/density modules)
  Jogvan Magnus H. Olsen,   Univ. of Southern Denmark,    Denmark     (Polarizable embedding model, QM/MM)
  Anders Osted,             Copenhagen University,        Denmark     (QM/MM)
  Martin J. Packer,         University of Sheffield,      UK          (SOPPA)
  Filip Pawlowski,          Kazimierz Wielki University,  Poland      (CC3)
  Morten N. Pedersen,       Univ. of Southern Denmark,    Denmark     (Polarizable embedding model)
  Thomas B. Pedersen,       University of Oslo,           Norway      (Cholesky decomposition)
  Patricio F. Provasi,      University of Northeastern,   Argentina   (Analysis of coupling constants in localized orbitals)
  Zilvinas Rinkevicius,     KTH Stockholm,                Sweden      (open-shell DFT, ESR)
  Elias Rudberg,            KTH Stockholm,                Sweden      (DFT grid and basis info)
  Torgeir A. Ruden,         University of Oslo,           Norway      (Numerical derivatives in ABACUS)
  Kenneth Ruud,             UiT The Arctic U. of Norway,  Norway      (DALTON; ABACUS magnetic properties and much more)
  Pawel Salek,              KTH Stockholm,                Sweden      (DALTON; DFT code)
  Claire C. M. Samson       University of Karlsruhe       Germany     (Boys localization, r12 integrals in ERI)
  Alfredo Sanchez de Meras, University of Valencia,       Spain       (CC module, Cholesky decomposition)
  Trond Saue,               Paul Sabatier University,     France      (direct Fock matrix construction)
  Stephan P. A. Sauer,      University of Copenhagen,     Denmark     (SOPPA(CCSD), SOPPA prop., AOSOPPA, vibrational g-factors)
  Bernd Schimmelpfennig,    Forschungszentrum Karlsruhe,  Germany     (AMFI module)
  Kristian Sneskov,         Aarhus University,            Denmark     (Polarizable embedding model, QM/MM)
  Arnfinn H. Steindal,      UiT The Arctic U. of Norway,  Norway      (parallel QM/MM, Polarizable embedding model)
  Casper Steinmann,         Univ. of Southern Denmark,    Denmark     (QFIT, Polarizable embedding model)
  K. O. Sylvester-Hvid,     University of Copenhagen,     Denmark     (MC-SCRF)
  Peter R. Taylor,          VLSCI/Univ. of Melbourne,     Australia   (Symmetry handling ABACUS, integral transformation)
  Andrew M. Teale,          University of Nottingham,     England     (DFT-AC, DFT-D)
  David P. Tew,             University of Bristol,        England     (CCSD(R12))
  Olav Vahtras,             KTH Stockholm,                Sweden      (triplet response, spin-orbit, ESR, TDDFT, open-shell DFT)
  David J. Wilson,          La Trobe University,          Australia   (DFT Hessian and DFT magnetizabilities)
  Hans Agren,               KTH Stockholm,                Sweden      (SIRIUS module, RESPONS, MC-SCRF solvation model)
 --------------------------------------------------------------------------------

     Date and time (Linux)  : Tue Sep 10 08:54:53 2019
     Host name              : node361.cluster                         

 * Work memory size             :  2048000000 = 15.259 gigabytes.

 * Directories for basis set searches:
   1) /groups/kemi/andreasb/DHAVHF_exc/imag_polar/VHF_cis
   2) /lustre/hpc/software/kemi/DALTON2016/build-parallel/basis


Compilation information
-----------------------

 Who compiled             | sauer
 Host                     | fend01.cluster
 System                   | Linux-2.6.32-642.6.2.el6.x86_64
 CMake generator          | Unix Makefiles
 Processor                | x86_64
 64-bit integers          | OFF
 MPI                      | ON
 Fortran compiler         | /software/kemi/openmpi-1.6.5-i4/bin/mpif90
 Fortran compiler version | ifort (IFORT) 13.0.1 20121010
 C compiler               | /software/kemi/openmpi-1.6.5-i4/bin/mpicc
 C compiler version       | icc (ICC) 13.0.1 20121010
 C++ compiler             | /software/kemi/openmpi-1.6.5-i4/bin/mpicxx
 C++ compiler version     | unknown
 BLAS                     | /users/software/kemi/intel/Compiler/composer_xe_20
                          | 13.1.117/mkl/lib/intel64/libmkl_intel_lp64.so;/use
                          | rs/software/kemi/intel/Compiler/composer_xe_2013.1
                          | .117/mkl/lib/intel64/libmkl_sequential.so;/users/s
                          | oftware/kemi/intel/Compiler/composer_xe_2013.1.117
                          | /mkl/lib/intel64/libmkl_core.so;/usr/lib64/libpthr
                          | ead.so;/usr/lib64/libm.so
 LAPACK                   | /users/software/kemi/intel/Compiler/composer_xe_20
                          | 13.1.117/mkl/lib/intel64/libmkl_lapack95_lp64.a;/u
                          | sers/software/kemi/intel/Compiler/composer_xe_2013
                          | .1.117/mkl/lib/intel64/libmkl_intel_lp64.so
 Static linking           | OFF
 Last Git revision        | a10ef0cf7cc62686ecfeaafb7364c9b014fdc003
 Configuration time       | 2017-07-05 12:54:37.340882

 * MPI run using 8 processes.


   Content of the .dal input file
 ----------------------------------

**DALTON                                          
.RUN RESPONSE                                     
.DIRECT                                           
**WAVE FUNCTIONS                                  
.DFT                                              
CAMB3LYP                                          
**RESPONSE                                        
*ABSORPTION                                       
.ALPHA                                            
.DAMPING                                          
 0.0045566                                        
.FREQ INTERVAL                                    
 0.15 0.2 0.001                                   
**END OF                                          


   Content of the .mol file
 ----------------------------

ATOMBASIS                                                                      
VHF_cis.xyz                                                                    
Hej Bendte                                                                     
Atomtypes=3 Charge=0 Nosymmetry Angstrom                                       
  7.0000     3 Bas=aug-cc-pVDZ                                                 
N    1.696670000        2.708780000        1.090420000                         
N   -2.220120000        3.346020000       -0.571560000                         
N   -0.041680000       -1.721880000        1.499350000                         
  6.0000    18 Bas=aug-cc-pVDZ                                                 
C    1.543870000       -0.714820000       -0.016770000                         
C    2.438810000       -1.854750000        0.229980000                         
C    3.783750000       -1.846300000        0.265520000                         
C    4.666290000       -0.718120000        0.047700000                         
C    4.381820000        0.382370000       -0.677110000                         
C    3.142510000        0.674350000       -1.367560000                         
C    1.910020000        0.209320000       -1.090840000                         
C   -0.497630000        1.614540000        0.277920000                         
C   -0.729740000        0.270960000        0.299070000                         
C    0.333820000       -0.695700000        0.610580000                         
C    0.731580000        2.200110000        0.725440000                         
C   -1.469130000        2.561880000       -0.191010000                         
C   -2.075350000       -0.291090000        0.037560000                         
C   -2.183660000       -1.455330000       -0.733010000                         
C   -3.232260000        0.294770000        0.560000000                         
C   -3.429540000       -1.997960000       -1.008780000                         
C   -4.477380000       -0.262370000        0.296140000                         
C   -4.578620000       -1.401910000       -0.494340000                         
  1.0000    13 Bas=aug-cc-pVDZ                                                 
H   -3.160650000        1.176480000        1.186500000                         
H   -5.368290000        0.195080000        0.710120000                         
H    1.940540000       -2.809050000        0.395990000                         
H    4.273260000       -2.788900000        0.496480000                         
H    5.672660000       -0.816210000        0.443500000                         
H    5.176800000        1.108720000       -0.818030000                         
H    3.217970000        1.397780000       -2.174180000                         
H    1.093680000        0.580950000       -1.706670000                         
H   -1.282680000       -1.925460000       -1.112790000                         
H   -3.504410000       -2.890790000       -1.618680000                         
H   -5.551940000       -1.832010000       -0.702250000                         
H   -0.831050000       -1.484710000        2.084890000                         
H    0.725060000       -2.061820000        2.064790000                         


       *******************************************************************
       *********** Output from DALTON general input processing ***********
       *******************************************************************

 --------------------------------------------------------------------------------
   Overall default print level:    0
   Print level for DALTON.STAT:    1

    Parallel calculation using MPI
    AO-direct calculation (in sections where implemented)
    HERMIT 1- and 2-electron integral sections will be executed
    "Old" integral transformation used (limited to max 255 basis functions)
    Wave function sections will be executed (SIRIUS module)
    Dynamic molecular response properties section will be executed (RESPONSE module)
 --------------------------------------------------------------------------------


   ****************************************************************************
   *************** Output of molecule and basis set information ***************
   ****************************************************************************


    The two title cards from your ".mol" input:
    ------------------------------------------------------------------------
 1: VHF_cis.xyz                                                             
 2: Hej Bendte                                                              
    ------------------------------------------------------------------------

  Coordinates are entered in Angstrom and converted to atomic units.
          - Conversion factor : 1 bohr = 0.52917721 A

  Atomic type no.    1
  --------------------
  Nuclear charge:   7.00000
  Number of symmetry independent centers:    3
  Number of basis sets to read;    2
  The basis set is "aug-cc-pVDZ" from the basis set library.
  Basis set file used for this atomic type with Z =   7 :
     "/lustre/hpc/software/kemi/DALTON2016/build-parallel/basis/aug-cc-pVDZ"

  Atomic type no.    2
  --------------------
  Nuclear charge:   6.00000
  Number of symmetry independent centers:   18
  Number of basis sets to read;    2
  The basis set is "aug-cc-pVDZ" from the basis set library.
  Basis set file used for this atomic type with Z =   6 :
     "/lustre/hpc/software/kemi/DALTON2016/build-parallel/basis/aug-cc-pVDZ"

  Atomic type no.    3
  --------------------
  Nuclear charge:   1.00000
  Number of symmetry independent centers:   13
  Number of basis sets to read;    2
  The basis set is "aug-cc-pVDZ" from the basis set library.
  Basis set file used for this atomic type with Z =   1 :
     "/lustre/hpc/software/kemi/DALTON2016/build-parallel/basis/aug-cc-pVDZ"


                         SYMGRP: Point group information
                         -------------------------------

@    Point group: C1 


                                 Isotopic Masses
                                 ---------------

                           N          14.003074
                           N          14.003074
                           N          14.003074
                           C          12.000000
                           C          12.000000
                           C          12.000000
                           C          12.000000
                           C          12.000000
                           C          12.000000
                           C          12.000000
                           C          12.000000
                           C          12.000000
                           C          12.000000
                           C          12.000000
                           C          12.000000
                           C          12.000000
                           C          12.000000
                           C          12.000000
                           C          12.000000
                           C          12.000000
                           C          12.000000
                           H           1.007825
                           H           1.007825
                           H           1.007825
                           H           1.007825
                           H           1.007825
                           H           1.007825
                           H           1.007825
                           H           1.007825
                           H           1.007825
                           H           1.007825
                           H           1.007825
                           H           1.007825
                           H           1.007825

                       Total mass:   271.110947 amu
                       Natural abundance:  80.883 %

 Center-of-mass coordinates (a.u.):   -0.016617    0.084122    0.005233


  Atoms and basis sets
  --------------------

  Number of atom types :    3
  Total number of atoms:   34

  label    atoms   charge   prim   cont     basis
  ----------------------------------------------------------------------
  N           3    7.0000    35    23      [10s5p2d|4s3p2d]                                   
  C          18    6.0000    35    23      [10s5p2d|4s3p2d]                                   
  H          13    1.0000    11     9      [5s2p|3s2p]                                        
  ----------------------------------------------------------------------
  total:     34  142.0000   878   600
  ----------------------------------------------------------------------
  Spherical harmonic basis used.

  Threshold for neglecting AO integrals:  1.00D-12

  Max    interatomic separation is   11.3286 Angstrom (   21.4079 Bohr)
  between atoms   32 and   26, "H     " and "H     ".

  Min HX interatomic separation is    1.0110 Angstrom (    1.9106 Bohr)

  Min YX interatomic separation is    1.1504 Angstrom (    2.1739 Bohr)


  Bond distances (Angstrom):
  --------------------------

                  atom 1     atom 2       distance
                  ------     ------       --------
  bond distance:  C          C            1.470117
  bond distance:  C          C            1.345436
  bond distance:  C          C            1.448831
  bond distance:  C          C            1.348092
  bond distance:  C          C            1.448400
  bond distance:  C          C            1.463464
  bond distance:  C          C            1.346053
  bond distance:  C          C            1.363646
  bond distance:  C          N            1.408530
  bond distance:  C          C            1.363141
  bond distance:  C          C            1.470588
  bond distance:  C          N            1.150371
  bond distance:  C          C            1.433221
  bond distance:  C          N            1.150513
  bond distance:  C          C            1.435674
  bond distance:  C          C            1.481538
  bond distance:  C          C            1.400344
  bond distance:  C          C            1.398076
  bond distance:  C          C            1.386619
  bond distance:  C          C            1.389371
  bond distance:  C          C            1.392950
  bond distance:  C          C            1.390561
  bond distance:  H          C            1.083994
  bond distance:  H          C            1.083679
  bond distance:  H          C            1.089275
  bond distance:  H          C            1.086949
  bond distance:  H          C            1.085845
  bond distance:  H          C            1.086018
  bond distance:  H          C            1.086131
  bond distance:  H          C            1.088010
  bond distance:  H          C            1.084906
  bond distance:  H          C            1.083849
  bond distance:  H          C            1.084234
  bond distance:  H          N            1.011045
  bond distance:  H          N            1.011520


  Bond angles (degrees):
  ----------------------

                  atom 1     atom 2     atom 3         angle
                  ------     ------     ------         -----
  bond angle:     C          N          H            113.745
  bond angle:     C          N          H            113.296
  bond angle:     H          N          H            110.298
  bond angle:     C          C          C            117.421
  bond angle:     C          C          C            118.295
  bond angle:     C          C          C            123.436
  bond angle:     C          C          C            127.452
  bond angle:     C          C          H            115.242
  bond angle:     C          C          H            117.306
  bond angle:     C          C          C            127.577
  bond angle:     C          C          H            116.766
  bond angle:     C          C          H            115.651
  bond angle:     C          C          C            126.012
  bond angle:     C          C          H            116.066
  bond angle:     C          C          H            117.729
  bond angle:     C          C          C            126.971
  bond angle:     C          C          H            117.470
  bond angle:     C          C          H            115.446
  bond angle:     C          C          C            128.011
  bond angle:     C          C          H            115.394
  bond angle:     C          C          H            116.513
  bond angle:     C          C          C            126.736
  bond angle:     C          C          H            116.320
  bond angle:     C          C          H            116.913
  bond angle:     C          C          C            122.936
  bond angle:     C          C          C            122.686
  bond angle:     C          C          C            114.378
  bond angle:     C          C          C            121.860
  bond angle:     C          C          C            121.712
  bond angle:     C          C          C            116.416
  bond angle:     N          C          C            121.120
  bond angle:     N          C          C            114.819
  bond angle:     C          C          C            123.623
  bond angle:     N          C          C            177.777
  bond angle:     N          C          C            178.133
  bond angle:     C          C          C            118.867
  bond angle:     C          C          C            121.779
  bond angle:     C          C          C            119.342
  bond angle:     C          C          C            120.284
  bond angle:     C          C          H            119.253
  bond angle:     C          C          H            120.463
  bond angle:     C          C          C            120.171
  bond angle:     C          C          H            120.143
  bond angle:     C          C          H            119.679
  bond angle:     C          C          C            120.019
  bond angle:     C          C          H            119.758
  bond angle:     C          C          H            120.220
  bond angle:     C          C          C            120.120
  bond angle:     C          C          H            119.666
  bond angle:     C          C          H            120.214
  bond angle:     C          C          C            120.036
  bond angle:     C          C          H            119.998
  bond angle:     C          C          H            119.963




 Principal moments of inertia (u*A**2) and principal axes
 --------------------------------------------------------

   IA     880.858231          0.999987   -0.004601    0.002264
   IB    2284.407880          0.004578    0.999942    0.009710
   IC    2845.278345         -0.002308   -0.009699    0.999950


 Rotational constants
 --------------------

               A                   B                   C

            573.7348            221.2298            177.6202 MHz
            0.019138            0.007379            0.005925 cm-1


@  Nuclear repulsion energy : 1478.005974753474 Hartree


                     .---------------------------------------.
                     | Starting in Integral Section (HERMIT) |
                     `---------------------------------------'



 ***************************************************************************************
 ****************** Output from **INTEGRALS input processing (HERMIT) ******************
 ***************************************************************************************


 - Using defaults, no **INTEGRALS input found

 Default print level:        1

 * Nuclear model: Point charge

 Calculation of one-electron Hamiltonian integrals.

 Center of mass  (bohr):     -0.016616509719      0.084121732179      0.005233463214
 Operator center (bohr):      0.000000000000      0.000000000000      0.000000000000
 Gauge origin    (bohr):      0.000000000000      0.000000000000      0.000000000000
 Dipole origin   (bohr):      0.000000000000      0.000000000000      0.000000000000


     ************************************************************************
     ************************** Output from HERINT **************************
     ************************************************************************

  Time used in ONEDRV     is       1.77 seconds
  Time used in HUCKEL     is       0.61 seconds
  Time used in OVERLAP    is       0.25 seconds
  Time used in POPOVLP    is       0.49 seconds
  Time used in DIPLEN     is       0.29 seconds
  Time used in QUADRUP    is       0.76 seconds
  Time used in KINENE     is       0.64 seconds
  Time used in GABGEN     is       2.72 seconds
  Total CPU  time used in HERMIT:   7.52 seconds
  Total wall time used in HERMIT:   7.75 seconds


                        .----------------------------------.
                        | End of Integral Section (HERMIT) |
                        `----------------------------------'



                   .--------------------------------------------.
                   | Starting in Wave Function Section (SIRIUS) |
                   `--------------------------------------------'



@ Primary orbitals are deleted during canonical orthonormalization
@   because of detected numerical linear dependence or too large coefficients.
@ Eigenvalue threshold for num. lin. dep. =  1.00D-06

@   1 MO components are deleted in symmetry    1
 Overlap eigenvalues of the deleted orbitals:
  8.89D-07

 Max MO coeff. of last deleted MO & limit:  5.75D+02  1.00D+03

WARNING: Orbitals have been deleted because of numerical
   linear dependence although not requested in input.

 *** Output from Huckel module :

     Using EWMO model:          T
     Using EHT  model:          F
     Number of Huckel orbitals each symmetry:  118

 EWMO - Energy Weighted Maximum Overlap - is a Huckel type method,
        which normally is better than Extended Huckel Theory.
 Reference: Linderberg and Ohrn, Propagators in Quantum Chemistry (Wiley, 1973)

 Huckel EWMO eigenvalues for symmetry :  1
          -15.674698     -15.673808     -15.673447     -11.366651     -11.364953
          -11.362498     -11.358400     -11.356307     -11.355852     -11.354533
          -11.353648     -11.352450     -11.351126     -11.348664     -11.348139
          -11.347525     -11.347182     -11.345364     -11.344631     -11.344407
          -11.344034      -2.074606      -1.959685      -1.816598      -1.740419
           -1.569637      -1.504374      -1.447267      -1.440515      -1.384521
           -1.279346      -1.164353      -1.113958      -1.047756      -1.018708
           -0.960601      -0.949384      -0.923783      -0.873168      -0.805450
           -0.787944      -0.761095      -0.723908      -0.709572      -0.698422
           -0.659365      -0.653717      -0.639205      -0.618820      -0.611218
           -0.598572      -0.588337      -0.569857      -0.544288      -0.541041
           -0.525804      -0.508052      -0.496825      -0.491467      -0.484235
           -0.469612      -0.458975      -0.448738      -0.441225      -0.431147
           -0.419110      -0.405634      -0.399198      -0.391386      -0.364403
           -0.349324      -0.292004      -0.277387      -0.264858      -0.253614
           -0.247698      -0.244352      -0.233347      -0.228269      -0.196982
           -0.195584      -0.185510      -0.177952      -0.168758      -0.145651
           -0.144891      -0.138761      -0.137614      -0.131509      -0.129730
           -0.127356      -0.125503      -0.124732      -0.121981      -0.120809
           -0.120647      -0.120198      -0.119293      -0.116298      -0.113337
           -0.110223      -0.104192      -0.102227      -0.098255      -0.097130
           -0.096052      -0.094656      -0.093417      -0.092987      -0.090267
           -0.085158      -0.084792      -0.080788      -0.078678      -0.078206
           -0.077375      -0.074423      -0.073811

 **********************************************************************
 *SIRIUS* a direct, restricted step, second order MCSCF program       *
 **********************************************************************

 
     Date and time (Linux)  : Tue Sep 10 08:55:22 2019
     Host name              : node361.cluster                         

 Title lines from ".mol" input file:
     VHF_cis.xyz                                                             
     Hej Bendte                                                              

 Print level on unit LUPRI =   2 is   0
 Print level on unit LUW4  =   2 is   5

@    Restricted, closed shell Kohn-Sham DFT calculation.

@    Time-dependent Kohn-Sham DFT calculation (TD-DFT).
 Fock matrices are calculated directly and in parallel without use of integrals on disk.

 Initial molecular orbitals are obtained according to
 ".MOSTART EWMO  " input option

     Wave function specification
     ============================
@    Wave function type        --- KS-DFT ---
@    Number of closed shell electrons         142
@    Number of electrons in active shells       0
@    Total charge of the molecule               0

@    Spin multiplicity and 2 M_S                1         0
@    Total number of symmetries                 1 (point group: C1 )
@    Reference state symmetry                   1 (irrep name : A  )
 
     This is a DFT calculation of type: Camb3lyp
 CAM-B3LYP w/ alpha=0.190 beta=0.460 mu=0.330 VwnWeight=0.190 LypWeight=0.810

     Orbital specifications
     ======================
@    Abelian symmetry species          All |    1
@                                          |  A  
                                       --- |  ---
@    Occupied SCF orbitals              71 |   71
@    Secondary orbitals                528 |  528
@    Total number of orbitals          599 |  599
@    Number of basis functions         600 |  600

     Optimization information
     ========================
@    Number of configurations                 1
@    Number of orbital rotations          37488
     ------------------------------------------
@    Total number of variables            37489

     Maximum number of Fock   iterations      0
     Maximum number of DIIS   iterations     60
     Maximum number of QC-SCF iterations     60
     Threshold for SCF convergence     1.00D-05
 
     This is a DFT calculation of type: Camb3lyp
 CAM-B3LYP w/ alpha=0.190 beta=0.460 mu=0.330 VwnWeight=0.190 LypWeight=0.810

    INFORMATION: Switched to "new" integral transformation (from 1988 ;-) )
    because more than 255 basis functions.


 ***********************************************
 ***** DIIS acceleration of SCF iterations *****
 ***********************************************

 C1-DIIS algorithm; max error vectors =    8

 Iter      Total energy        Error norm    Delta(E)  DIIS dim.
 -----------------------------------------------------------------------------
   1  Screening settings (-IFTHRS, JTDIIS, DIFDEN, times)   -9    1    F  1.11D+03  1.11D+03
      K-S energy, electrons, error :    -87.128925811852 141.9997271183   -2.73D-04
@  1    -854.278957562        6.95580D+00   -8.54D+02    1
      Virial theorem: -V/T =      2.017001
@      MULPOP N      -1.38; N      -1.36; N      -0.43; C      -0.19; C       0.47; C       0.18; C       0.16; C       0.16; C       0.17; C       0.23; 
@             C      -0.98; C       0.86; C       0.51; C       1.44; C       1.42; C       0.21; C       0.10; C       0.20; C       0.18; C       0.18; 
@             C       0.18; H      -0.25; H      -0.20; H      -0.22; H      -0.21; H      -0.21; H      -0.21; H      -0.22; H      -0.25; H      -0.29; 
   1  Level shift: doubly occupied orbital energies shifted by -2.00D-01
 -----------------------------------------------------------------------------
   2  Screening settings (-IFTHRS, JTDIIS, DIFDEN, times)   -9    2    F  1.11D+03  1.11D+03
      K-S energy, electrons, error :    -89.873798057056 141.9998481585   -1.52D-04
@  2    -855.645979308        5.64577D+00   -1.37D+00    2
      Virial theorem: -V/T =      1.997391
@      MULPOP N       1.42; N       1.45; N       0.33; C       1.18; C       0.84; C       0.72; C       0.46; C       0.68; C       0.59; C       1.28; 
@             C       1.54; C       0.90; C      -0.81; C      -2.47; C      -2.87; C       1.10; C       1.14; C       1.17; C      -0.27; C      -0.05; 
@             C       0.72; H      -0.95; H      -0.72; H      -0.85; H      -0.76; H      -0.72; H      -0.77; H      -0.79; H      -0.98; H      -0.99; 
   2  Level shift: doubly occupied orbital energies shifted by -2.00D-01
 -----------------------------------------------------------------------------
   3  Screening settings (-IFTHRS, JTDIIS, DIFDEN, times)   -9    3    F  1.11D+03  1.11D+03
      K-S energy, electrons, error :    -89.748067254462 141.9998594408   -1.41D-04
@  3    -857.343496288        1.69171D+00   -1.70D+00    3
      Virial theorem: -V/T =      2.001047
@      MULPOP N      -0.46; N      -0.38; N       0.11; C       1.24; C       0.92; C       0.68; C       0.45; C       0.71; C       0.41; C       1.71; 
@             C       1.82; C       0.94; C      -0.82; C      -0.61; C      -1.02; C       1.28; C       1.10; C       1.16; C      -0.21; C      -0.06; 
@             C       0.77; H      -1.03; H      -0.78; H      -0.93; H      -0.82; H      -0.77; H      -0.81; H      -0.86; H      -1.02; H      -1.06; 
   3  Level shift: doubly occupied orbital energies shifted by -1.00D-01
 -----------------------------------------------------------------------------
   4  Screening settings (-IFTHRS, JTDIIS, DIFDEN, times)  -10    4    F  1.12D+03  1.12D+03
      K-S energy, electrons, error :    -89.181986260216 141.9998524107   -1.48D-04
@  4    -857.490898526        4.29070D-01   -1.47D-01    4
      Virial theorem: -V/T =      2.006502
@      MULPOP N      -0.18; N      -0.12; N       0.12; C       1.27; C       0.98; C       0.76; C       0.51; C       0.79; C       0.54; C       1.63; 
@             C       1.79; C       1.06; C      -0.81; C      -1.00; C      -1.38; C       1.14; C       1.06; C       1.17; C      -0.06; C       0.12; 
@             C       0.89; H      -1.08; H      -0.83; H      -0.99; H      -0.87; H      -0.82; H      -0.86; H      -0.91; H      -1.06; H      -1.09; 
   4  Level shift: doubly occupied orbital energies shifted by -5.00D-02
 -----------------------------------------------------------------------------
   5  Screening settings (-IFTHRS, JTDIIS, DIFDEN, times)  -10    5    F  1.12D+03  1.12D+03
      K-S energy, electrons, error :    -89.281267088030 141.9998538540   -1.46D-04
@  5    -857.503412527        1.49596D-01   -1.25D-02    5
      Virial theorem: -V/T =      2.005591
@      MULPOP N      -0.19; N      -0.12; N       0.14; C       1.29; C       0.92; C       0.79; C       0.50; C       0.79; C       0.54; C       1.65; 
@             C       1.94; C       0.89; C      -0.86; C      -0.97; C      -1.37; C       1.20; C       1.06; C       1.19; C      -0.10; C       0.09; 
@             C       0.86; H      -1.07; H      -0.82; H      -0.98; H      -0.87; H      -0.82; H      -0.86; H      -0.90; H      -1.05; H      -1.08; 
   5  Level shift: doubly occupied orbital energies shifted by -2.50D-02
 -----------------------------------------------------------------------------
   6  Screening settings (-IFTHRS, JTDIIS, DIFDEN, times)  -11    6    F  1.12D+03  1.12D+03
      K-S energy, electrons, error :    -89.293912136705 141.9998542500   -1.46D-04
@  6    -857.504892274        6.78573D-02   -1.48D-03    6
      Virial theorem: -V/T =      2.005471
@      MULPOP N      -0.17; N      -0.11; N       0.11; C       1.34; C       0.94; C       0.76; C       0.50; C       0.79; C       0.52; C       1.65; 
@             C       1.88; C       0.98; C      -0.87; C      -1.02; C      -1.40; C       1.24; C       1.06; C       1.17; C      -0.11; C       0.09; 
@             C       0.86; H      -1.07; H      -0.82; H      -0.98; H      -0.87; H      -0.81; H      -0.85; H      -0.90; H      -1.06; H      -1.08; 
   6  Level shift: doubly occupied orbital energies shifted by -1.25D-02
 -----------------------------------------------------------------------------
   7  Screening settings (-IFTHRS, JTDIIS, DIFDEN, times)  -11    7    F  1.12D+03  1.12D+03
      K-S energy, electrons, error :    -89.290223556393 141.9998543481   -1.46D-04
@  7    -857.505215615        2.35629D-02   -3.23D-04    7
      Virial theorem: -V/T =      2.005507
@      MULPOP N      -0.17; N      -0.11; N       0.11; C       1.32; C       0.92; C       0.78; C       0.50; C       0.80; C       0.54; C       1.64; 
@             C       1.91; C       0.94; C      -0.86; C      -1.00; C      -1.40; C       1.23; C       1.05; C       1.17; C      -0.10; C       0.10; 
@             C       0.86; H      -1.07; H      -0.82; H      -0.98; H      -0.87; H      -0.81; H      -0.85; H      -0.90; H      -1.05; H      -1.08; 
 -----------------------------------------------------------------------------
   8  Screening settings (-IFTHRS, JTDIIS, DIFDEN, times)  -12    8    F  1.12D+03  1.13D+03
      K-S energy, electrons, error :    -89.289740905752 141.9998543623   -1.46D-04
@  8    -857.505264684        8.45235D-03   -4.91D-05    8
      Virial theorem: -V/T =      2.005514
@      MULPOP N      -0.17; N      -0.11; N       0.11; C       1.31; C       0.92; C       0.77; C       0.50; C       0.80; C       0.53; C       1.65; 
@             C       1.90; C       0.94; C      -0.85; C      -1.00; C      -1.39; C       1.24; C       1.05; C       1.17; C      -0.10; C       0.10; 
@             C       0.86; H      -1.07; H      -0.82; H      -0.98; H      -0.87; H      -0.81; H      -0.85; H      -0.90; H      -1.05; H      -1.08; 
 -----------------------------------------------------------------------------
   9  Screening settings (-IFTHRS, JTDIIS, DIFDEN, times)  -12    9    F  1.13D+03  1.13D+03
      K-S energy, electrons, error :    -89.290504516210 141.9998543230   -1.46D-04
@  9    -857.505271641        3.24594D-03   -6.96D-06    8
      Virial theorem: -V/T =      2.005507
@      MULPOP N      -0.18; N      -0.11; N       0.11; C       1.32; C       0.92; C       0.78; C       0.50; C       0.80; C       0.53; C       1.64; 
@             C       1.90; C       0.94; C      -0.86; C      -1.00; C      -1.39; C       1.24; C       1.04; C       1.16; C      -0.10; C       0.10; 
@             C       0.86; H      -1.07; H      -0.82; H      -0.98; H      -0.87; H      -0.81; H      -0.85; H      -0.90; H      -1.05; H      -1.08; 
 -----------------------------------------------------------------------------
  10  Screening settings (-IFTHRS, JTDIIS, DIFDEN, times)  -13   10    F  1.13D+03  1.13D+03
      K-S energy, electrons, error :    -89.290381861133 141.9998543139   -1.46D-04
@ 10    -857.505273152        1.73555D-03   -1.51D-06    8
      Virial theorem: -V/T =      2.005508
@      MULPOP N      -0.17; N      -0.11; N       0.11; C       1.32; C       0.92; C       0.78; C       0.50; C       0.80; C       0.53; C       1.65; 
@             C       1.90; C       0.94; C      -0.85; C      -1.00; C      -1.39; C       1.24; C       1.04; C       1.16; C      -0.10; C       0.10; 
@             C       0.86; H      -1.07; H      -0.82; H      -0.98; H      -0.87; H      -0.81; H      -0.85; H      -0.90; H      -1.05; H      -1.08; 
 -----------------------------------------------------------------------------
  11  Screening settings (-IFTHRS, JTDIIS, DIFDEN, times)  -13   11    F  1.12D+03  1.12D+03
      K-S energy, electrons, error :    -89.290433114020 141.9998543227   -1.46D-04
@ 11    -857.505273465        7.31094D-04   -3.13D-07    8
      Virial theorem: -V/T =      2.005507
@      MULPOP N      -0.17; N      -0.11; N       0.11; C       1.32; C       0.92; C       0.77; C       0.50; C       0.80; C       0.53; C       1.65; 
@             C       1.90; C       0.94; C      -0.85; C      -1.00; C      -1.39; C       1.24; C       1.04; C       1.16; C      -0.10; C       0.10; 
@             C       0.86; H      -1.07; H      -0.82; H      -0.98; H      -0.87; H      -0.81; H      -0.85; H      -0.90; H      -1.06; H      -1.08; 
 -----------------------------------------------------------------------------
  12  Screening settings (-IFTHRS, JTDIIS, DIFDEN, times)  -13   12    F  1.13D+03  1.13D+03
      K-S energy, electrons, error :    -89.290430727664 141.9998543213   -1.46D-04
@ 12    -857.505273578        3.24197D-04   -1.13D-07    8
      Virial theorem: -V/T =      2.005507
@      MULPOP N      -0.17; N      -0.11; N       0.11; C       1.32; C       0.92; C       0.78; C       0.50; C       0.80; C       0.53; C       1.65; 
@             C       1.90; C       0.94; C      -0.85; C      -1.00; C      -1.39; C       1.24; C       1.04; C       1.16; C      -0.10; C       0.10; 
@             C       0.86; H      -1.07; H      -0.82; H      -0.98; H      -0.87; H      -0.81; H      -0.85; H      -0.90; H      -1.06; H      -1.08; 
 -----------------------------------------------------------------------------
  13  Screening settings (-IFTHRS, JTDIIS, DIFDEN, times)  -13   13    F  1.13D+03  1.13D+03
      K-S energy, electrons, error :    -89.290384236579 141.9998543191   -1.46D-04
@ 13    -857.505273595        1.54601D-04   -1.74D-08    8
      Virial theorem: -V/T =      2.005508
@      MULPOP N      -0.17; N      -0.11; N       0.11; C       1.32; C       0.92; C       0.78; C       0.50; C       0.80; C       0.53; C       1.65; 
@             C       1.90; C       0.94; C      -0.85; C      -1.00; C      -1.39; C       1.24; C       1.04; C       1.16; C      -0.10; C       0.10; 
@             C       0.86; H      -1.07; H      -0.82; H      -0.98; H      -0.87; H      -0.81; H      -0.85; H      -0.90; H      -1.06; H      -1.08; 
 -----------------------------------------------------------------------------
  14  Screening settings (-IFTHRS, JTDIIS, DIFDEN, times)  -13   14    F  1.13D+03  1.13D+03
      K-S energy, electrons, error :    -89.290411955435 141.9998543195   -1.46D-04
@ 14    -857.505273597        7.80626D-05   -2.47D-09    8
      Virial theorem: -V/T =      2.005507
@      MULPOP N      -0.17; N      -0.11; N       0.11; C       1.32; C       0.92; C       0.78; C       0.50; C       0.80; C       0.53; C       1.65; 
@             C       1.90; C       0.94; C      -0.85; C      -1.00; C      -1.39; C       1.24; C       1.04; C       1.16; C      -0.10; C       0.10; 
@             C       0.86; H      -1.07; H      -0.82; H      -0.98; H      -0.87; H      -0.81; H      -0.85; H      -0.90; H      -1.06; H      -1.08; 
 -----------------------------------------------------------------------------
  15  Screening settings (-IFTHRS, JTDIIS, DIFDEN, times)  -13   15    F  1.13D+03  1.13D+03
      K-S energy, electrons, error :    -89.290415526896 141.9998543196   -1.46D-04
@ 15    -857.505273598        3.37487D-05   -7.78D-10    8
      Virial theorem: -V/T =      2.005507
@      MULPOP N      -0.17; N      -0.11; N       0.11; C       1.32; C       0.92; C       0.78; C       0.50; C       0.80; C       0.53; C       1.65; 
@             C       1.90; C       0.94; C      -0.85; C      -1.00; C      -1.39; C       1.24; C       1.04; C       1.16; C      -0.10; C       0.10; 
@             C       0.86; H      -1.07; H      -0.82; H      -0.98; H      -0.87; H      -0.81; H      -0.85; H      -0.90; H      -1.06; H      -1.08; 
 -----------------------------------------------------------------------------
  16  Screening settings (-IFTHRS, JTDIIS, DIFDEN, times)  -13   16    F  1.13D+03  1.13D+03
      K-S energy, electrons, error :    -89.290411908229 141.9998543194   -1.46D-04
@ 16    -857.505273598        1.65316D-05   -7.37D-11    8
      Virial theorem: -V/T =      2.005507
@      MULPOP N      -0.17; N      -0.11; N       0.11; C       1.32; C       0.92; C       0.78; C       0.50; C       0.80; C       0.53; C       1.65; 
@             C       1.90; C       0.94; C      -0.85; C      -1.00; C      -1.39; C       1.24; C       1.04; C       1.16; C      -0.10; C       0.10; 
@             C       0.86; H      -1.07; H      -0.82; H      -0.98; H      -0.87; H      -0.81; H      -0.85; H      -0.90; H      -1.06; H      -1.08; 
 -----------------------------------------------------------------------------
  17  Screening settings (-IFTHRS, JTDIIS, DIFDEN, times)  -13   17    F  1.13D+03  1.13D+03
      K-S energy, electrons, error :    -89.290411389675 141.9998543194   -1.46D-04
@ 17    -857.505273598        7.31541D-06   -5.37D-11    8

@ *** DIIS converged in  17 iterations !
@     Converged SCF energy, gradient:   -857.505273598334    7.32D-06
    - total time used in SIRFCK :              0.00 seconds


 *** SCF orbital energy analysis ***

 Only the 20 lowest virtual orbital energies printed in each symmetry.

 Number of electrons :  142
 Orbital occupations :   71

 Sym       Kohn-Sham orbital energies

1 A     -14.43075068   -14.42205316   -14.41938738   -10.34776477   -10.33886279
        -10.32194244   -10.31802731   -10.31473972   -10.30055180   -10.29058210
        -10.28932899   -10.28826817   -10.28757946   -10.28431256   -10.28400969
        -10.28374679   -10.28306528   -10.28202504   -10.27768131   -10.27612123
        -10.27491831    -1.03612132    -1.01585399    -1.00243272    -0.97638772
         -0.94515970    -0.93770030    -0.88039714    -0.87061014    -0.86523966
         -0.85559213    -0.81248747    -0.77007889    -0.73522437    -0.71657198
         -0.70499678    -0.67688421    -0.66822672    -0.63781594    -0.61757828
         -0.60960028    -0.60776297    -0.57373611    -0.56449485    -0.55350031
         -0.53839175    -0.53236538    -0.52440273    -0.51803669    -0.51173786
         -0.49849815    -0.48932327    -0.46873991    -0.46100705    -0.45861231
         -0.45191051    -0.44638409    -0.44014308    -0.43891568    -0.43300197
         -0.42381576    -0.42323447    -0.41279561    -0.40709862    -0.40594787
         -0.36741184    -0.34590357    -0.34112918    -0.33253934    -0.31537570
         -0.25048688    -0.06380772    -0.02371021    -0.00348604    -0.00018622
          0.00759129     0.01090804     0.01548120     0.02012951     0.02313367
          0.03000516     0.03698264     0.03901503     0.04050262     0.04654266
          0.04801951     0.04925418     0.05529142     0.05849249     0.06375372
          0.07098496

    E(LUMO) :    -0.06380772 au (symmetry 1)
  - E(HOMO) :    -0.25048688 au (symmetry 1)
  ------------------------------------------
    gap     :     0.18667916 au

 --- Writing SIRIFC interface file

 CPU and wall time for SCF :   19524.517   19540.781


                       .-----------------------------------.
                       | --- Final results from SIRIUS --- |
                       `-----------------------------------'


@    Spin multiplicity:           1
@    Spatial symmetry:            1 ( irrep  A   in C1  )
@    Total charge of molecule:    0

@    Final DFT energy:           -857.505273598334                 
@    Nuclear repulsion:          1478.005974753474
@    Electronic energy:         -2335.511248351808

@    Final gradient norm:           0.000007315410

 
     Date and time (Linux)  : Tue Sep 10 14:21:03 2019
     Host name              : node361.cluster                         

File label for MO orbitals:  10Sep19   FOCKDIIS

 (Only coefficients > 0.0100 are printed.)

 Molecular orbitals for symmetry species 1  (A  )
 ------------------------------------------------

    Orbital        62       63       64       65       66       67       68
   2 N   :1s    -0.0467   0.0481  -0.0027   0.0332  -0.0014  -0.0275   0.0071
   3 N   :1s    -0.0357   0.0389  -0.0341   0.0187   0.0117   0.0024  -0.0224
   4 N   :1s    -0.1312   0.1274  -0.0891   0.0403   0.0190   0.0097  -0.0282
   5 N   :2px   -0.2200   0.0771   0.1547   0.1352  -0.0608  -0.0636   0.0769
   6 N   :2py    0.2592   0.1854  -0.4318  -0.0410  -0.0175   0.0501  -0.0851
   7 N   :2pz   -0.1741  -0.1149   0.0739  -0.0983   0.2382   0.0493  -0.1177
   8 N   :2px    0.0492  -0.0332  -0.0138  -0.0222   0.0046   0.0085  -0.0032
   9 N   :2py   -0.0243  -0.0293   0.0625  -0.0006  -0.0013  -0.0069   0.0155
  10 N   :2pz    0.0260   0.0078  -0.0021   0.0124  -0.0298  -0.0087   0.0177
  11 N   :2px    0.0144  -0.0339   0.0062  -0.0104  -0.0105  -0.0053   0.0080
  12 N   :2py    0.0271  -0.0091   0.0058  -0.0030  -0.0041  -0.0023   0.0001
  13 N   :2pz    0.0026  -0.0143   0.0090  -0.0039   0.0110  -0.0005  -0.0073
  14 N   :3d2-  -0.0069  -0.0077   0.0133  -0.0004   0.0017  -0.0013   0.0019
  18 N   :3d2+   0.0130   0.0021  -0.0153  -0.0058   0.0014   0.0035  -0.0039
  25 N   :1s    -0.0438  -0.0083   0.0279  -0.0032  -0.0009  -0.0001   0.0057
  26 N   :1s    -0.0388  -0.0155   0.0345  -0.0032   0.0093   0.0015  -0.0063
  27 N   :1s    -0.1972  -0.0228   0.1242  -0.0338   0.0359   0.0184  -0.0128
  28 N   :2px    0.2329  -0.3249   0.0797  -0.0069  -0.0573   0.0082   0.0123
  29 N   :2py    0.1479  -0.3119   0.2539  -0.0081   0.0640  -0.0084  -0.0287
  30 N   :2pz    0.1564   0.0675   0.0963   0.0409   0.2395  -0.0354  -0.0569
  31 N   :2px   -0.0410   0.0325   0.0060  -0.0014   0.0053  -0.0002  -0.0022
  32 N   :2py   -0.0007   0.0372  -0.0439   0.0018  -0.0070   0.0013   0.0051
  33 N   :2pz   -0.0255  -0.0117  -0.0052  -0.0030  -0.0307   0.0030   0.0087
  34 N   :2px   -0.0334  -0.0168   0.0150  -0.0088  -0.0012   0.0053  -0.0029
  35 N   :2py    0.0325  -0.0039  -0.0200   0.0061  -0.0041  -0.0026   0.0025
  36 N   :2pz   -0.0098  -0.0042   0.0123   0.0008   0.0171  -0.0054  -0.0036
  41 N   :3d2+   0.0118  -0.0198   0.0108  -0.0003   0.0007  -0.0001  -0.0007
  48 N   :1s    -0.0184  -0.0409   0.0085  -0.0655  -0.0182   0.0009  -0.0791
  49 N   :1s     0.0339  -0.0274  -0.0019  -0.0092   0.0046   0.0273  -0.0105
  50 N   :1s    -0.0707  -0.0584  -0.0407  -0.0768  -0.0932   0.0109  -0.1791
  51 N   :2px    0.0152   0.0305  -0.0126   0.0469   0.0406   0.0458   0.1051
  52 N   :2py    0.1167   0.0147  -0.0926   0.1960   0.2485   0.0099   0.2186
  53 N   :2pz    0.0556   0.0963   0.0019   0.1399   0.1084   0.0433   0.2046
  54 N   :2px    0.0168  -0.0050  -0.0069   0.0251   0.0002   0.0054   0.0015
  55 N   :2py   -0.0041   0.0140   0.0195   0.0046  -0.0023   0.0080   0.0178
  56 N   :2pz    0.0067  -0.0143  -0.0114  -0.0142  -0.0095  -0.0118  -0.0176
  57 N   :2px   -0.0026  -0.0100  -0.0004   0.0192   0.0109   0.0139   0.0236
  58 N   :2py    0.0271   0.0163  -0.0015   0.0135   0.0278   0.0089   0.0232
  59 N   :2pz    0.0152   0.0059  -0.0059   0.0290   0.0231  -0.0045   0.0469
  71 C   :1s    -0.0157  -0.0144  -0.0329  -0.0397  -0.0302   0.0013  -0.0039
  72 C   :1s    -0.0528   0.0035   0.0266  -0.0364  -0.0319  -0.1104  -0.0414
  73 C   :1s    -0.4397  -0.0545   0.0392  -0.1557   0.0689   0.3525  -0.0924
  74 C   :2px   -0.0103   0.0135   0.0120  -0.1835   0.0686   0.0010  -0.2225
  75 C   :2py   -0.0646  -0.1692  -0.2084   0.0985  -0.0041  -0.1122  -0.1930
  76 C   :2pz    0.0563   0.0832   0.0717   0.0109  -0.0489   0.0210  -0.2587
  77 C   :2px    0.0107   0.0546  -0.0729   0.2049   0.0752   0.0797  -0.0529
  78 C   :2py    0.1621  -0.0371  -0.0306  -0.0547   0.0352   0.0197   0.0770
  79 C   :2pz   -0.1404   0.0162   0.0974  -0.1336  -0.0151  -0.0498   0.0128
  80 C   :2px    0.0667  -0.1470  -0.0224   0.0571   0.0450   0.0471   0.0185
  81 C   :2py    0.0229   0.3188   0.2399   0.0414   0.0201  -0.1381   0.0857
  82 C   :2pz    0.0094  -0.1399  -0.1367  -0.0249  -0.0091   0.1573  -0.0473
  84 C   :3d1-  -0.0001   0.0029   0.0048   0.0064  -0.0010   0.0103   0.0075
  85 C   :3d0    0.0039  -0.0003  -0.0030   0.0042   0.0004  -0.0152   0.0044
  86 C   :3d1+  -0.0012   0.0047   0.0045  -0.0141   0.0004  -0.0010  -0.0059
  88 C   :3d2-  -0.0034   0.1267   0.0615   0.0780   0.0096   0.0003   0.0529
  89 C   :3d1-  -0.0074  -0.0630  -0.0228  -0.0970   0.0136  -0.0133   0.0099
  90 C   :3d0    0.0047   0.0888   0.0644   0.0427   0.0134   0.0034   0.0145
  91 C   :3d1+   0.0025  -0.0647  -0.0407   0.0135  -0.0399   0.0039  -0.0404
  92 C   :3d2+  -0.0028  -0.0299   0.0188  -0.1308  -0.0059  -0.0030   0.0118
  94 C   :1s     0.0282   0.0382   0.0404   0.0163   0.0131   0.0482  -0.0494
  95 C   :1s     0.0885   0.2401   0.2181  -0.0880  -0.0166   0.0538   0.0468
  96 C   :1s     0.3072   0.5710   0.5338  -0.1816  -0.0814   0.0622   0.1760
  97 C   :2px    0.0609   0.0484   0.0532   0.0985  -0.0567   0.0042   0.0381
  98 C   :2py    0.0683   0.1771   0.1952  -0.2208  -0.0157   0.0247  -0.0750
  99 C   :2pz   -0.0025  -0.0167  -0.0678  -0.1780   0.0001  -0.4300  -0.1575
 100 C   :2px   -0.0841  -0.0151  -0.0354   0.0497   0.0095   0.0207  -0.1261
 101 C   :2py    0.0094  -0.0110  -0.0498   0.0986   0.0177  -0.0502   0.0834
 102 C   :2pz    0.0030  -0.0129  -0.0017  -0.0437   0.0164   0.0433  -0.0013
 103 C   :2px    0.1174   0.0423   0.0270   0.0187  -0.0142   0.1318   0.0126
 104 C   :2py    0.0013   0.0604   0.0724  -0.1031  -0.0124  -0.0444  -0.0044
 105 C   :2pz    0.0015  -0.0166  -0.0174  -0.0001  -0.0002  -0.0441  -0.0106
 106 C   :3d2-  -0.0051  -0.0112  -0.0121   0.0117   0.0011  -0.0073  -0.0023
 109 C   :3d1+   0.0006   0.0023   0.0011  -0.0131   0.0017  -0.0140   0.0092
 110 C   :3d2+   0.0026   0.0049   0.0065   0.0021  -0.0036   0.0034   0.0118
 111 C   :3d2-   0.0125   0.0632   0.0553  -0.0301  -0.0061   0.0122  -0.0129
 112 C   :3d1-   0.0018  -0.0068  -0.0069  -0.0200   0.0096   0.0121  -0.0106
 113 C   :3d0   -0.0002  -0.0002  -0.0049   0.0124  -0.0048  -0.0104  -0.0000
 114 C   :3d1+   0.0035   0.0087   0.0092  -0.0149  -0.0012   0.0009   0.0015
 115 C   :3d2+  -0.0222  -0.0328  -0.0152  -0.0491   0.0077   0.0290  -0.0451
 117 C   :1s    -0.0221  -0.0253  -0.0167   0.0243  -0.0112   0.0015   0.0350
 118 C   :1s    -0.0399  -0.0639  -0.0678   0.1434  -0.0007  -0.0864   0.0718
 119 C   :1s    -0.1679  -0.3142  -0.3389   0.3527   0.0339  -0.1743  -0.0889
 120 C   :2px   -0.0851  -0.0890  -0.0903  -0.0495   0.0477  -0.0115  -0.0309
 121 C   :2py   -0.0688  -0.1396  -0.1411   0.1612   0.0070  -0.1304   0.0152
 122 C   :2pz    0.0152   0.0350  -0.0169  -0.3318   0.0249  -0.4180   0.0643
 123 C   :2px   -0.0376   0.0266   0.0259   0.0230  -0.0140   0.0254  -0.0795
 124 C   :2py   -0.0349   0.0137   0.0275  -0.1168   0.0058   0.0325  -0.0349
 125 C   :2pz   -0.0089  -0.0228  -0.0169   0.0836  -0.0064   0.0264   0.0009
 126 C   :2px    0.1121   0.0026   0.0124   0.0757  -0.0104   0.1001   0.0336
 127 C   :2py    0.0273  -0.0245  -0.0462   0.0853   0.0037   0.0230   0.0048
 128 C   :2pz   -0.0030   0.0093   0.0129  -0.0134   0.0023  -0.0147   0.0051
 129 C   :3d2-  -0.0033  -0.0100  -0.0110   0.0173   0.0006  -0.0020   0.0010
 132 C   :3d1+   0.0011   0.0020   0.0032   0.0002   0.0006   0.0153   0.0129
 133 C   :3d2+   0.0059   0.0053   0.0060   0.0127  -0.0025   0.0025  -0.0084
 134 C   :3d2-   0.0066   0.0491   0.0430  -0.0622  -0.0026   0.0154   0.0004
 138 C   :3d2+  -0.0061  -0.0214  -0.0190  -0.0154   0.0084  -0.0059   0.0153
 140 C   :1s    -0.0234  -0.0435  -0.0503   0.0030   0.0085   0.0096   0.0045
 141 C   :1s    -0.1184  -0.1234  -0.0697  -0.0146   0.0194  -0.0645   0.0235
 142 C   :1s    -0.1126  -0.1266  -0.0739  -0.0577   0.0045  -0.0747   0.0382
 143 C   :2px    0.1598   0.2000   0.2073   0.0730  -0.0465   0.0715  -0.1208
 144 C   :2py   -0.0049   0.0395   0.0197  -0.3144   0.0204   0.0063   0.1613
 145 C   :2pz    0.0217   0.0063  -0.0256  -0.1584   0.0268  -0.0437   0.3078
 146 C   :2px   -0.0696  -0.0660  -0.0662  -0.0522   0.0123  -0.0081  -0.0146
 147 C   :2py   -0.0616   0.0144   0.0398   0.0113  -0.0045   0.0036  -0.0579
 148 C   :2pz    0.0252  -0.0035  -0.0188   0.0016   0.0018   0.0046  -0.0138
 149 C   :2px    0.0113  -0.0387  -0.0362   0.0450  -0.0004   0.0125  -0.0229
 150 C   :2py    0.0583  -0.0948  -0.0762   0.1217  -0.0055   0.0502   0.0260
 151 C   :2pz   -0.0166   0.0282   0.0205  -0.0528   0.0015  -0.0159   0.0065
 152 C   :3d2-  -0.0049  -0.0077  -0.0059   0.0133   0.0001  -0.0043  -0.0027
 153 C   :3d1-   0.0008  -0.0002   0.0005   0.0063  -0.0004   0.0152   0.0024
 154 C   :3d0    0.0021   0.0027   0.0028   0.0029  -0.0011  -0.0102  -0.0091
 155 C   :3d1+   0.0051   0.0064   0.0067   0.0027  -0.0016   0.0106  -0.0014
 157 C   :3d2-   0.0377   0.0176   0.0151  -0.0156  -0.0068   0.0137   0.0099
 158 C   :3d1-  -0.0028  -0.0031  -0.0064  -0.0157   0.0010   0.0065   0.0041
 159 C   :3d0   -0.0164  -0.0185  -0.0164   0.0175   0.0039  -0.0077  -0.0060
 160 C   :3d1+  -0.0318  -0.0276  -0.0238   0.0161   0.0035  -0.0091  -0.0011
 161 C   :3d2+  -0.0315  -0.0378  -0.0394  -0.0046   0.0087  -0.0155   0.0036
 163 C   :1s     0.0174   0.0340   0.0273  -0.0503  -0.0068  -0.0084   0.0015
 164 C   :1s     0.0757   0.1228   0.1140  -0.1339  -0.0151   0.0605   0.0058
 165 C   :1s     0.1031   0.0316   0.0090  -0.1917  -0.0121   0.1004  -0.0429
 166 C   :2px   -0.1286  -0.1659  -0.1338   0.1706   0.0218  -0.1325  -0.0836
 167 C   :2py   -0.0150  -0.0466  -0.0476   0.0539   0.0132   0.1030   0.1561
 168 C   :2pz   -0.1071  -0.1050  -0.1216  -0.2898   0.0552   0.1734   0.2684
 169 C   :2px    0.0820   0.0278  -0.0194  -0.0172  -0.0049   0.0203   0.0192
 170 C   :2py   -0.0436   0.0242   0.0470  -0.0553  -0.0001  -0.0068  -0.0324
 171 C   :2pz    0.0472  -0.0174  -0.0341   0.0727  -0.0058  -0.0172  -0.0080
 172 C   :2px   -0.0316   0.0854   0.0698  -0.0555   0.0065  -0.0404  -0.0012
 173 C   :2py    0.0259  -0.0641  -0.0509   0.0555  -0.0017   0.0192   0.0137
 174 C   :2pz   -0.0421   0.0776   0.0557  -0.0640   0.0060  -0.0241   0.0060
 175 C   :3d2-  -0.0037  -0.0056  -0.0051   0.0078   0.0013  -0.0151   0.0070
 177 C   :3d0    0.0005   0.0009  -0.0005  -0.0098   0.0010  -0.0085   0.0106
 180 C   :3d2-   0.0226   0.0208   0.0212  -0.0445  -0.0067   0.0123  -0.0043
 181 C   :3d1-  -0.0128   0.0058   0.0166  -0.0291  -0.0031  -0.0042  -0.0070
 182 C   :3d0   -0.0080  -0.0215  -0.0223   0.0217   0.0037  -0.0115   0.0099
 183 C   :3d1+  -0.0251  -0.0171  -0.0176   0.0210   0.0079  -0.0144   0.0040
 184 C   :3d2+  -0.0492  -0.0286  -0.0092  -0.0193   0.0064  -0.0113  -0.0019
 186 C   :1s     0.0263   0.0252   0.0228  -0.0066   0.0057   0.0092   0.0278
 187 C   :1s     0.0257   0.0838   0.1543  -0.0897  -0.0711   0.0419  -0.0357
 188 C   :1s     0.2157   0.4317   0.4137   0.0576  -0.0551   0.2047  -0.0373
 189 C   :2px    0.1167   0.1369   0.1142  -0.0654  -0.0321  -0.0404  -0.0234
 190 C   :2py   -0.1402  -0.1570  -0.1564  -0.1895   0.0280   0.3355  -0.0495
 191 C   :2pz    0.0604   0.0794   0.0710  -0.0415  -0.0190   0.3049  -0.0464
 192 C   :2px    0.0868  -0.0453  -0.1157   0.1257   0.0164  -0.0017   0.0321
 193 C   :2py    0.0652   0.0471   0.0280   0.0842  -0.0058  -0.0281  -0.0010
 194 C   :2pz   -0.0175   0.0001  -0.0211  -0.0347   0.0121  -0.0264   0.0235
 195 C   :2px   -0.1317   0.0395   0.0243  -0.0538   0.0118  -0.1122  -0.0031
 196 C   :2py   -0.0034  -0.0102  -0.0250  -0.0167   0.0062   0.0111   0.0066
 197 C   :2pz   -0.0341   0.0383   0.0575  -0.0271  -0.0053   0.0050  -0.0064
 198 C   :3d2-  -0.0026  -0.0047  -0.0048   0.0044   0.0024  -0.0082   0.0117
 200 C   :3d0   -0.0042  -0.0050  -0.0051  -0.0103   0.0017   0.0077   0.0058
 201 C   :3d1+   0.0064   0.0089   0.0078  -0.0063  -0.0012   0.0001   0.0101
 203 C   :3d2-  -0.0091   0.0186   0.0333  -0.0430  -0.0071   0.0027  -0.0051
 204 C   :3d1-  -0.0233  -0.0324  -0.0213  -0.0258   0.0004  -0.0033   0.0049
 205 C   :3d0    0.0280   0.0222   0.0036   0.0273   0.0012   0.0049   0.0053
 206 C   :3d1+  -0.0132  -0.0689  -0.0661   0.0236   0.0044  -0.0149   0.0125
 207 C   :3d2+  -0.0224  -0.0308  -0.0229  -0.0315   0.0015  -0.0045  -0.0039
 209 C   :1s     0.0063  -0.0291  -0.0474   0.0437  -0.0127  -0.0568  -0.0284
 210 C   :1s    -0.0696  -0.2782  -0.2119  -0.0109  -0.0111  -0.0973   0.0219
 211 C   :1s    -0.1790  -0.5169  -0.5938   0.0316   0.0438  -0.1985  -0.0220
 212 C   :2px   -0.0478  -0.0659  -0.0441   0.1328   0.0417  -0.0833   0.0665
 213 C   :2py   -0.0159   0.0253   0.0437  -0.0620  -0.0258   0.3297  -0.2230
 214 C   :2pz   -0.1200  -0.1913  -0.2033  -0.0368   0.0395   0.1313  -0.1665
 215 C   :2px    0.1328   0.0029  -0.0537   0.0866  -0.0218   0.0263  -0.0221
 216 C   :2py    0.0552   0.0166  -0.0588   0.1192   0.0410  -0.0394   0.0478
 217 C   :2pz   -0.0575   0.0009   0.1121  -0.1538  -0.0458   0.0107  -0.0144
 218 C   :2px   -0.1200  -0.0479  -0.0699  -0.0570   0.0157  -0.1401  -0.0018
 219 C   :2py   -0.0917  -0.0115   0.0265  -0.0201   0.0019  -0.0735  -0.0274
 220 C   :2pz    0.1026  -0.0489  -0.0907   0.0764  -0.0028   0.0393  -0.0287
 223 C   :3d0   -0.0023  -0.0036  -0.0043  -0.0005  -0.0006  -0.0063  -0.0101
 224 C   :3d1+   0.0047   0.0081   0.0074  -0.0082  -0.0008   0.0124  -0.0078
 226 C   :3d2-   0.0176   0.0287   0.0117  -0.0084   0.0139  -0.0017   0.0082
 227 C   :3d1-   0.0068  -0.0164  -0.0314   0.0304   0.0128  -0.0100   0.0032
 228 C   :3d0   -0.0145   0.0196   0.0487  -0.0358  -0.0154   0.0063  -0.0131
 229 C   :3d1+  -0.0327  -0.0937  -0.0605  -0.0000  -0.0113  -0.0102  -0.0124
 230 C   :3d2+   0.0129  -0.0026  -0.0407   0.0458   0.0322  -0.0202   0.0148
 232 C   :1s     0.0126  -0.0113  -0.0030  -0.0049  -0.0332  -0.0146   0.0360
 233 C   :1s     0.3042  -0.3219  -0.2735   0.0844   0.0654   0.0427   0.0378
 234 C   :1s    -0.3957  -0.0366   0.0380   0.0738   0.0285   0.0244  -0.0603
 235 C   :2px   -0.0133   0.0720  -0.0381   0.0216   0.1193  -0.0313  -0.0215
 236 C   :2py   -0.1576   0.0661   0.0525   0.0223   0.0162  -0.0003  -0.0058
 237 C   :2pz   -0.0292   0.0102  -0.0470   0.0044  -0.2308   0.0404   0.0903
 238 C   :2px    0.0032   0.0292   0.0632   0.0522  -0.0664  -0.0220   0.0039
 239 C   :2py   -0.0910   0.1852   0.1733  -0.1139  -0.1092  -0.0113  -0.0395
 240 C   :2pz   -0.0013   0.0063   0.0141   0.0301   0.0452  -0.0069  -0.0105
 241 C   :2px    0.0576   0.0075  -0.1832  -0.0710  -0.0168   0.0402  -0.0050
 242 C   :2py   -0.2885   0.0780   0.0517  -0.0225   0.0435   0.0498   0.0337
 243 C   :2pz    0.0687  -0.0697  -0.0867  -0.0197  -0.0001  -0.0178  -0.0053
 244 C   :3d2-   0.0081   0.0069  -0.0189   0.0048  -0.0049   0.0013   0.0013
 245 C   :3d1-   0.0028   0.0055  -0.0043  -0.0011   0.0180   0.0010  -0.0039
 247 C   :3d1+  -0.0121  -0.0006   0.0005  -0.0025   0.0038   0.0007  -0.0007
 248 C   :3d2+  -0.0230   0.0152   0.0027   0.0066  -0.0025  -0.0022   0.0039
 249 C   :3d2-  -0.0317   0.0221  -0.0395  -0.0874   0.0666   0.0212  -0.0389
 250 C   :3d1-  -0.0075   0.0205  -0.0057  -0.0569   0.0304   0.0132  -0.0383
 251 C   :3d0    0.0233  -0.0250  -0.0104  -0.0098  -0.0102   0.0073   0.0037
 252 C   :3d1+   0.0146  -0.0032   0.0098  -0.0258  -0.0194   0.0101  -0.0008
 253 C   :3d2+  -0.0727   0.0951   0.0796  -0.0488  -0.0345  -0.0032  -0.0200
 255 C   :1s     0.0329  -0.0042  -0.0053  -0.0345  -0.0046   0.0050  -0.0230
 256 C   :1s    -0.1917   0.1697   0.1536   0.1565  -0.0542  -0.0341  -0.0927
 257 C   :1s    -0.2113   0.0988  -0.0794   0.1447   0.1796  -0.0536   0.0782
 258 C   :2px    0.0965   0.0069   0.0309  -0.1633   0.0796   0.0051  -0.0424
 259 C   :2py    0.1885  -0.1017  -0.0735   0.0243  -0.0464   0.0000   0.0346
 260 C   :2pz   -0.0243   0.0062  -0.0356  -0.0006  -0.3688   0.0190   0.0560
 261 C   :2px   -0.0613   0.1134  -0.0610  -0.0715  -0.1047   0.0874  -0.0585
 262 C   :2py   -0.0709   0.1556   0.1930  -0.1733  -0.1228   0.0161  -0.0367
 263 C   :2pz    0.0154   0.0225  -0.0248  -0.0043   0.0229   0.0249  -0.0251
 264 C   :2px   -0.0264  -0.0003   0.0117   0.0178  -0.0067   0.0687  -0.0681
 265 C   :2py   -0.0312   0.2466   0.1132  -0.1146   0.0416   0.1021   0.0674
 266 C   :2pz   -0.0139   0.1833   0.0575   0.1331  -0.0630  -0.0302   0.0047
 272 C   :3d2-  -0.1495   0.0985   0.0917  -0.1257   0.0891  -0.0106  -0.0389
 273 C   :3d1-   0.0044  -0.0028   0.0065  -0.0796  -0.0005   0.0152  -0.0231
 274 C   :3d0   -0.0194   0.0179   0.0073   0.0191  -0.0009  -0.0085   0.0009
 275 C   :3d1+  -0.0518   0.0124  -0.0101   0.0352   0.0229  -0.0111  -0.0067
 276 C   :3d2+   0.2184  -0.2225  -0.1638  -0.0445   0.0462   0.0659  -0.0247
 278 C   :1s     0.0182   0.0305   0.0053   0.0702   0.0203   0.0129   0.0565
 279 C   :1s    -0.0632   0.1064   0.0481   0.0687   0.1165   0.0302  -0.1055
 280 C   :1s     0.3234   0.0207   0.1160   0.0093   0.1356  -0.1229   0.2952
 281 C   :2px    0.0696  -0.0091  -0.0302   0.1984  -0.0731   0.0017   0.0248
 282 C   :2py   -0.0010   0.0382  -0.0088   0.0047  -0.0084  -0.0061  -0.1029
 283 C   :2pz    0.0713  -0.0209  -0.0851   0.0882   0.0603  -0.0086  -0.0935
 284 C   :2px   -0.0106   0.0255  -0.0958   0.1758   0.0376   0.0604  -0.0413
 285 C   :2py   -0.1295   0.1858   0.1805   0.0908   0.0283  -0.0368   0.0818
 286 C   :2pz    0.0445  -0.1236  -0.0431  -0.1487  -0.1008  -0.0273  -0.0167
 287 C   :2px    0.0178   0.0974  -0.0099   0.1544  -0.0732  -0.2388  -0.0419
 288 C   :2py   -0.1438  -0.2068  -0.1275  -0.0704  -0.0676   0.0139  -0.0998
 289 C   :2pz   -0.0737   0.0164   0.0317  -0.0404   0.0354   0.0142   0.0062
 290 C   :3d2-  -0.0020  -0.0101  -0.0073   0.0033   0.0028  -0.0064  -0.0100
 291 C   :3d1-  -0.0038   0.0040   0.0051  -0.0010  -0.0125   0.0024   0.0033
 292 C   :3d0    0.0036  -0.0003  -0.0037   0.0101   0.0136   0.0002   0.0192
 295 C   :3d2-  -0.0490   0.0621   0.0093   0.0982  -0.0337   0.0139  -0.0288
 296 C   :3d1-   0.0884  -0.0626  -0.0369  -0.0216  -0.0004   0.0306   0.0013
 297 C   :3d0   -0.0569   0.0512   0.0251   0.0310   0.0275  -0.0003   0.0017
 298 C   :3d1+  -0.0102  -0.0225   0.0031  -0.0246  -0.0074  -0.0241   0.0172
 299 C   :3d2+   0.1005  -0.0938  -0.1001  -0.0222   0.0039   0.0608  -0.0205
 301 C   :1s    -0.0200   0.0343  -0.0189   0.0031   0.0186  -0.0108   0.0261
 302 C   :1s     0.0954  -0.1537  -0.0492   0.0941   0.0029  -0.0059   0.0697
 303 C   :1s     0.2867  -0.2858   0.2466  -0.0390  -0.0282  -0.0752   0.0643
 304 C   :2px    0.0001  -0.1114   0.2164   0.0319  -0.0712  -0.0389   0.0496
 305 C   :2py    0.3515   0.0736  -0.3588  -0.0913  -0.0321   0.0591  -0.0646
 306 C   :2pz   -0.0969  -0.1834   0.0884  -0.1310   0.1377   0.0652  -0.0706
 307 C   :2px   -0.0265   0.0659  -0.0123  -0.0525   0.0092   0.0112  -0.0174
 308 C   :2py   -0.0654   0.0185   0.0948   0.0286  -0.0271  -0.0203   0.0192
 309 C   :2pz   -0.0221   0.0675   0.0064   0.0134  -0.0089  -0.0168   0.0004
 310 C   :2px   -0.0255   0.0415   0.0321   0.0135   0.0163   0.0116   0.0128
 311 C   :2py    0.0021   0.0223  -0.0684   0.0057  -0.0117  -0.0009  -0.0212
 312 C   :2pz   -0.0151   0.0148   0.0099   0.0018   0.0100   0.0085  -0.0003
 313 C   :3d2-   0.0118   0.0049  -0.0129  -0.0010  -0.0040  -0.0006   0.0019
 315 C   :3d0   -0.0035  -0.0029   0.0023  -0.0031   0.0107   0.0016  -0.0052
 316 C   :3d1+  -0.0067  -0.0057   0.0084  -0.0029   0.0146  -0.0018  -0.0039
 317 C   :3d2+  -0.0154  -0.0022   0.0180   0.0047  -0.0051  -0.0033   0.0081
 318 C   :3d2-   0.0072  -0.0010  -0.0229   0.0016   0.0037   0.0008  -0.0014
 319 C   :3d1-   0.0081  -0.0094  -0.0145  -0.0036   0.0094   0.0049  -0.0045
 321 C   :3d1+   0.0040  -0.0173   0.0089  -0.0059   0.0086   0.0029  -0.0031
 322 C   :3d2+  -0.0190   0.0005   0.0382   0.0174  -0.0141  -0.0106   0.0228
 324 C   :1s    -0.0261  -0.0080   0.0433  -0.0030  -0.0153  -0.0024   0.0009
 325 C   :1s     0.0162   0.0125  -0.0896  -0.0422   0.0996   0.0151  -0.0460
 326 C   :1s     0.6644  -0.0171  -0.3648   0.0809  -0.1063  -0.0790  -0.0152
 327 C   :2px    0.0887  -0.3287   0.1992  -0.0251  -0.0337   0.0016  -0.0103
 328 C   :2py    0.2800  -0.2539   0.0993   0.0116   0.0553  -0.0055  -0.0124
 329 C   :2pz    0.0756   0.0466   0.1480   0.0282   0.1494  -0.0184  -0.0313
 330 C   :2px   -0.0368   0.0814  -0.0384  -0.0181   0.0327   0.0064  -0.0252
 331 C   :2py   -0.0546   0.0567   0.0150  -0.0128  -0.0482  -0.0013   0.0124
 332 C   :2pz    0.0048  -0.0221  -0.0432  -0.0137  -0.0013   0.0091   0.0016
 333 C   :2px    0.0824  -0.0144   0.0144   0.0184   0.0040  -0.0178   0.0016
 334 C   :2py   -0.0120  -0.0193   0.0640  -0.0081   0.0135   0.0028  -0.0009
 335 C   :2pz    0.0271   0.0220   0.0046  -0.0019   0.0002   0.0124  -0.0047
 337 C   :3d1-   0.0005   0.0072   0.0019   0.0012   0.0139  -0.0022  -0.0042
 338 C   :3d0   -0.0047  -0.0020  -0.0028  -0.0012  -0.0113   0.0020   0.0035
 339 C   :3d1+  -0.0080   0.0045  -0.0071  -0.0005  -0.0111   0.0018   0.0037
 340 C   :3d2+  -0.0159   0.0228  -0.0096   0.0012   0.0019  -0.0006  -0.0001
 341 C   :3d2-   0.0095  -0.0138  -0.0042  -0.0005  -0.0079   0.0010   0.0049
 342 C   :3d1-  -0.0087   0.0137   0.0078   0.0001   0.0126  -0.0017  -0.0066
 343 C   :3d0   -0.0025  -0.0091  -0.0036  -0.0004  -0.0101   0.0013   0.0082
 344 C   :3d1+  -0.0046   0.0039  -0.0117   0.0005  -0.0142   0.0024   0.0071
 345 C   :3d2+  -0.0169   0.0281  -0.0066  -0.0100  -0.0029   0.0025  -0.0042
 347 C   :1s     0.0072  -0.0074   0.0015   0.0266   0.0096  -0.0024  -0.0007
 348 C   :1s     0.0285   0.0314   0.0188   0.1760  -0.0908  -0.0815   0.0478
 349 C   :1s    -0.2143   0.2410   0.1618  -0.0125  -0.0958   0.0966  -0.2317
 350 C   :2px   -0.0478  -0.0156  -0.0197   0.1258  -0.0514  -0.0077   0.0020
 351 C   :2py   -0.1249   0.0612   0.0315   0.0214   0.2389  -0.0039  -0.0385
 352 C   :2pz   -0.1054   0.0635   0.0243  -0.0053  -0.2124  -0.0091   0.0161
 353 C   :2px   -0.0044   0.0532   0.0193  -0.1510  -0.1169   0.0578   0.0086
 354 C   :2py    0.0130   0.1475   0.0344   0.0106  -0.0805   0.0183  -0.0122
 355 C   :2pz    0.0632   0.0438  -0.0218   0.0613  -0.0391   0.0114  -0.0087
 356 C   :2px   -0.0106   0.0306  -0.0189   0.0003  -0.1099  -0.0713  -0.0042
 357 C   :2py   -0.0075   0.0128   0.0459  -0.0664  -0.0163   0.0145  -0.0467
 358 C   :2pz   -0.0134   0.0017   0.0285  -0.0836  -0.0158   0.0014  -0.0206
 362 C   :3d1+  -0.0034  -0.0006  -0.0014   0.0017  -0.0107   0.0002  -0.0021
 363 C   :3d2+  -0.0103   0.0047   0.0041   0.0009   0.0066   0.0000   0.0019
 364 C   :3d2-  -0.1358   0.1090   0.0567  -0.0744  -0.0132   0.0033   0.0039
 365 C   :3d1-  -0.1059   0.0347   0.0260   0.0417   0.0233  -0.0332   0.0075
 366 C   :3d0   -0.0416   0.0087   0.0072   0.0268  -0.0003  -0.0187   0.0117
 367 C   :3d1+  -0.0894   0.0529   0.0347  -0.0476  -0.0153   0.0002  -0.0055
 368 C   :3d2+   0.1848  -0.0690  -0.0571  -0.0255  -0.0531   0.0561  -0.0052
 370 C   :1s     0.0152  -0.0093  -0.0151   0.0155  -0.0290   0.0029   0.0099
 371 C   :1s     0.2296  -0.0875  -0.0864  -0.0454  -0.1092   0.0719  -0.0009
 372 C   :1s     0.2417  -0.2199  -0.0754  -0.0669  -0.1507  -0.0131   0.0325
 373 C   :2px    0.0807  -0.0018  -0.0189  -0.0168  -0.0114   0.0019  -0.0089
 374 C   :2py    0.1538  -0.1028  -0.0160  -0.0117  -0.0153   0.0184   0.1079
 375 C   :2pz    0.0696  -0.0153  -0.0335  -0.0134  -0.1255  -0.0150  -0.1188
 376 C   :2px   -0.0602   0.1076   0.0706   0.0171  -0.0363   0.0132  -0.0020
 377 C   :2py    0.0950   0.0535  -0.0197  -0.0152  -0.0219   0.0535  -0.0292
 378 C   :2pz    0.0658   0.0233  -0.0152   0.0040  -0.0170   0.0342  -0.0003
 379 C   :2px   -0.1171   0.1365   0.0897   0.0127   0.0619   0.0080   0.0086
 380 C   :2py   -0.0081   0.1066   0.0578   0.0074   0.0417  -0.0245   0.0357
 381 C   :2pz   -0.0018   0.0511   0.0240   0.0294   0.0119  -0.0234   0.0171
 384 C   :3d0    0.0016  -0.0015  -0.0001  -0.0006  -0.0112  -0.0001   0.0023
 387 C   :3d2-  -0.0704   0.0407   0.0140  -0.0126   0.0095  -0.0042  -0.0056
 388 C   :3d1-  -0.0186   0.0299   0.0050   0.0087  -0.0038   0.0062  -0.0106
 389 C   :3d0   -0.0024   0.0129   0.0040   0.0070  -0.0073   0.0037  -0.0045
 390 C   :3d1+  -0.0506   0.0307   0.0119  -0.0150   0.0118  -0.0039  -0.0031
 391 C   :3d2+   0.0191  -0.0482  -0.0094  -0.0222   0.0076  -0.0130   0.0184
 393 C   :1s     0.0022  -0.0178   0.0170  -0.0186   0.0374  -0.0012  -0.0123
 394 C   :1s    -0.2002   0.1035   0.0913  -0.0793  -0.0191  -0.0151   0.0097
 395 C   :1s    -0.0918   0.1809  -0.0045   0.0596   0.0352  -0.0828   0.1640
 396 C   :2px    0.0612  -0.0086   0.0365  -0.0944   0.0659   0.0014   0.0001
 397 C   :2py    0.1172  -0.1035  -0.0060  -0.0152   0.0086  -0.0086  -0.1041
 398 C   :2pz    0.1133  -0.0824  -0.0060   0.0248  -0.0665   0.0131   0.1496
 399 C   :2px   -0.1875   0.0777   0.0173  -0.1624  -0.0227   0.0441   0.0012
 400 C   :2py    0.0105   0.0235  -0.0399   0.0040   0.0059   0.0228   0.0037
 401 C   :2pz    0.0268   0.0072  -0.0246   0.0033   0.0216   0.0123  -0.0222
 402 C   :2px    0.0817  -0.2344  -0.1268  -0.0136  -0.0249   0.0198  -0.0061
 403 C   :2py   -0.0135  -0.0353  -0.0199  -0.0003   0.0009   0.0110  -0.0236
 404 C   :2pz    0.0007   0.0021   0.0055   0.0045   0.0060   0.0162  -0.0077
 408 C   :3d1+   0.0000  -0.0019  -0.0000   0.0013  -0.0147  -0.0007  -0.0028
 409 C   :3d2+  -0.0101   0.0050   0.0020   0.0011   0.0011  -0.0004  -0.0024
 410 C   :3d2-   0.0440   0.0003  -0.0052   0.0312  -0.0015  -0.0065  -0.0008
 411 C   :3d1-  -0.0359   0.0214   0.0045   0.0089   0.0007  -0.0086   0.0043
 412 C   :3d0   -0.0346   0.0202   0.0016   0.0096   0.0038  -0.0063   0.0052
 413 C   :3d1+   0.0254  -0.0017   0.0025   0.0163   0.0035  -0.0070  -0.0027
 414 C   :3d2+   0.0809  -0.0493  -0.0094  -0.0184  -0.0100   0.0168  -0.0034
 416 C   :1s    -0.0124   0.0011   0.0078  -0.0035   0.0134  -0.0018  -0.0037
 417 C   :1s    -0.0643   0.0941   0.0351   0.0083  -0.0181   0.0195  -0.0142
 418 C   :1s    -0.3416   0.2310   0.0985   0.0127   0.0991   0.0317  -0.0675
 419 C   :2px   -0.0707   0.0052   0.0058   0.0386   0.0204  -0.0041  -0.0136
 420 C   :2py   -0.1106   0.0204   0.0395  -0.0031  -0.0831   0.0043   0.0907
 421 C   :2pz   -0.0810   0.0901  -0.0161   0.0164   0.1845  -0.0114  -0.1457
 422 C   :2px    0.0775   0.0498   0.0211   0.0388  -0.0169   0.0232  -0.0058
 423 C   :2py    0.0268   0.0186   0.0132   0.0148  -0.0200   0.0005  -0.0107
 424 C   :2pz    0.0141  -0.0033   0.0132  -0.0049  -0.0224  -0.0013   0.0077
[...]
 66   YDIPLEN   ZDIPLEN    0.160000      -79.158426       26.634020

      Averaged value       0.160000      382.637478      306.533337

 67   XDIPLEN   XDIPLEN    0.161000      684.513399      712.448165
 68   YDIPLEN   YDIPLEN    0.161000      200.659866      269.034083
 69   ZDIPLEN   ZDIPLEN    0.161000      175.922225       46.792473
 70   XDIPLEN   YDIPLEN    0.161000      159.444711      285.020263
 71   XDIPLEN   ZDIPLEN    0.161000      -47.537856     -124.053770
 72   YDIPLEN   ZDIPLEN    0.161000      -76.433492        5.117119

      Averaged value       0.161000      353.698497      342.758240

 73   XDIPLEN   XDIPLEN    0.162000      560.277710      817.128184
 74   YDIPLEN   YDIPLEN    0.162000      181.085555      261.062014
 75   ZDIPLEN   ZDIPLEN    0.162000      173.093620       46.036180
 76   XDIPLEN   YDIPLEN    0.162000      105.727005      330.223398
 77   XDIPLEN   ZDIPLEN    0.162000      -25.535677     -141.540808
 78   YDIPLEN   ZDIPLEN    0.162000      -66.496160      -12.825715

      Averaged value       0.162000      304.818962      374.742126

 79   XDIPLEN   XDIPLEN    0.163000      388.574542      867.645704
 80   YDIPLEN   YDIPLEN    0.163000      157.119277      249.423840
 81   ZDIPLEN   ZDIPLEN    0.163000      169.477993       44.619434
 82   XDIPLEN   YDIPLEN    0.163000       31.854335      352.396435
 83   XDIPLEN   ZDIPLEN    0.163000        4.643468     -149.695041
 84   YDIPLEN   ZDIPLEN    0.163000      -51.519935      -24.452121

      Averaged value       0.163000      238.390604      387.229659

 85   XDIPLEN   XDIPLEN    0.164000      209.560449      840.213715
 86   YDIPLEN   YDIPLEN    0.164000      133.598089      228.975456
 87   ZDIPLEN   ZDIPLEN    0.164000      165.931465       41.692063
 88   XDIPLEN   YDIPLEN    0.164000      -45.214974      341.611794
 89   XDIPLEN   ZDIPLEN    0.164000       36.066432     -144.353933
 90   YDIPLEN   ZDIPLEN    0.164000      -35.319957      -28.393045

      Averaged value       0.164000      169.696668      370.293745

 91   XDIPLEN   XDIPLEN    0.165000       69.022702      748.591350
 92   YDIPLEN   YDIPLEN    0.165000      117.374112      201.102255
 93   ZDIPLEN   ZDIPLEN    0.165000      163.634142       37.528084
 94   XDIPLEN   YDIPLEN    0.165000     -106.216300      303.704918
 95   XDIPLEN   ZDIPLEN    0.165000       60.796392     -127.867602
 96   YDIPLEN   ZDIPLEN    0.165000      -21.721304      -26.043149

      Averaged value       0.165000      116.676985      329.073896

 97   XDIPLEN   XDIPLEN    0.166000      -14.005151      629.998672
 98   YDIPLEN   YDIPLEN    0.166000      111.174359      171.501284
 99   ZDIPLEN   ZDIPLEN    0.166000      163.039959       33.142517
100   XDIPLEN   YDIPLEN    0.166000     -143.149927      254.349444
101   XDIPLEN   ZDIPLEN    0.166000       75.518533     -106.658714
102   YDIPLEN   ZDIPLEN    0.166000      -12.377339      -20.430151

      Averaged value       0.166000       86.736389      278.214158

103   XDIPLEN   XDIPLEN    0.167000      -47.791076      515.306003
104   YDIPLEN   YDIPLEN    0.167000      113.214429      144.969367
105   ZDIPLEN   ZDIPLEN    0.167000      163.805614       29.395644
106   XDIPLEN   YDIPLEN    0.167000     -159.501475      206.542810
107   XDIPLEN   ZDIPLEN    0.167000       81.632200      -86.051662
108   YDIPLEN   ZDIPLEN    0.167000       -6.852476      -14.030378

      Averaged value       0.167000       76.409656      229.890338

109   XDIPLEN   XDIPLEN    0.168000      -49.703804      418.468580
110   YDIPLEN   YDIPLEN    0.168000      120.226316      123.499280
111   ZDIPLEN   ZDIPLEN    0.168000      165.299067       26.655597
112   XDIPLEN   YDIPLEN    0.168000     -162.601845      166.166686
113   XDIPLEN   ZDIPLEN    0.168000       82.083771      -68.451117
114   YDIPLEN   ZDIPLEN    0.168000       -4.029212       -8.026323

      Averaged value       0.168000       78.607193      189.541152

115   XDIPLEN   XDIPLEN    0.169000      -34.381760      341.735268
116   YDIPLEN   YDIPLEN    0.169000      129.437545      107.115712
117   ZDIPLEN   ZDIPLEN    0.169000      166.932445       24.912214
118   XDIPLEN   YDIPLEN    0.169000     -158.660245      134.158005
119   XDIPLEN   ZDIPLEN    0.169000       79.312061      -54.276565
120   YDIPLEN   ZDIPLEN    0.169000       -3.018109       -2.744154

      Averaged value       0.169000       87.329410      157.921065

121   XDIPLEN   XDIPLEN    0.170000      -11.170357      282.448466
122   YDIPLEN   YDIPLEN    0.170000      138.990279       94.959018
123   ZDIPLEN   ZDIPLEN    0.170000      168.257688       23.913927
124   XDIPLEN   YDIPLEN    0.170000     -151.670607      109.338594
125   XDIPLEN   ZDIPLEN    0.170000       74.837877      -43.187245
126   YDIPLEN   ZDIPLEN    0.170000       -3.338044        1.762728

      Averaged value       0.170000       98.692536      133.773804

127   XDIPLEN   XDIPLEN    0.171000       14.770966      236.810949
128   YDIPLEN   YDIPLEN    0.171000      147.826300       85.837215
129   ZDIPLEN   ZDIPLEN    0.171000      169.033261       23.233602
130   XDIPLEN   YDIPLEN    0.171000     -143.825521       89.987861
131   XDIPLEN   ZDIPLEN    0.171000       69.552054      -34.743004
132   YDIPLEN   ZDIPLEN    0.171000       -4.729964        5.367893

      Averaged value       0.171000      110.543509      115.293922

133   XDIPLEN   XDIPLEN    0.172000       40.944861      201.403296
134   YDIPLEN   YDIPLEN    0.172000      155.613576       78.504319
135   ZDIPLEN   ZDIPLEN    0.172000      169.325060       22.392595
136   XDIPLEN   YDIPLEN    0.172000     -136.101653       74.533060
137   XDIPLEN   ZDIPLEN    0.172000       64.069840      -28.552539
138   YDIPLEN   ZDIPLEN    0.172000       -6.867910        7.828303

      Averaged value       0.172000      121.961166      100.766737

139   XDIPLEN   XDIPLEN    0.173000       66.323363      173.655250
140   YDIPLEN   YDIPLEN    0.173000      162.676412       71.992025
141   ZDIPLEN   ZDIPLEN    0.173000      169.492382       21.095916
142   XDIPLEN   YDIPLEN    0.173000     -128.785418       61.840457
143   XDIPLEN   ZDIPLEN    0.173000       58.860436      -24.182340
144   YDIPLEN   ZDIPLEN    0.173000       -9.211311        9.004030

      Averaged value       0.173000      132.830719       88.914397

145   XDIPLEN   XDIPLEN    0.174000       90.526739      151.793326
146   YDIPLEN   YDIPLEN    0.174000      169.668277       65.935900
147   ZDIPLEN   ZDIPLEN    0.174000      169.959821       19.392015
148   XDIPLEN   YDIPLEN    0.174000     -121.920031       51.214547
149   XDIPLEN   ZDIPLEN    0.174000       54.185423      -21.143788
150   YDIPLEN   ZDIPLEN    0.174000      -11.164128        9.094995

      Averaged value       0.174000      143.384946       79.040414

151   XDIPLEN   XDIPLEN    0.175000      113.412470      134.573815
152   YDIPLEN   YDIPLEN    0.175000      177.057970       60.538501
153   ZDIPLEN   ZDIPLEN    0.175000      170.950862       17.576453
154   XDIPLEN   YDIPLEN    0.175000     -115.541517       42.211033
155   XDIPLEN   ZDIPLEN    0.175000       50.086709      -19.009162
156   YDIPLEN   ZDIPLEN    0.175000      -12.384172        8.593180

      Averaged value       0.175000      153.807100       70.896256

157   XDIPLEN   XDIPLEN    0.176000      134.951773      121.077138
158   YDIPLEN   YDIPLEN    0.176000      184.898069       56.164789
159   ZDIPLEN   ZDIPLEN    0.176000      172.430175       15.946506
160   XDIPLEN   YDIPLEN    0.176000     -109.707002       34.469987
161   XDIPLEN   ZDIPLEN    0.176000       46.482223      -17.492808
162   YDIPLEN   ZDIPLEN    0.176000      -12.881972        7.993363

      Averaged value       0.176000      164.093339       64.396144

163   XDIPLEN   XDIPLEN    0.177000      155.191301      110.616367
164   YDIPLEN   YDIPLEN    0.177000      192.990393       53.041016
165   ZDIPLEN   ZDIPLEN    0.177000      174.237825       14.661442
166   XDIPLEN   YDIPLEN    0.177000     -104.451386       27.650015
167   XDIPLEN   ZDIPLEN    0.177000       43.265276      -16.442465
168   YDIPLEN   ZDIPLEN    0.177000      -12.857099        7.603034

      Averaged value       0.177000      174.139839       59.439608

169   XDIPLEN   XDIPLEN    0.178000      174.215448      102.697172
170   YDIPLEN   YDIPLEN    0.178000      201.097932       51.244435
171   ZDIPLEN   ZDIPLEN    0.178000      176.217024       13.761265
172   XDIPLEN   YDIPLEN    0.178000      -99.757067       21.420341
173   XDIPLEN   ZDIPLEN    0.178000       40.354151      -15.794979
174   YDIPLEN   ZDIPLEN    0.178000      -12.525842        7.560929

      Averaged value       0.178000      183.843468       55.900957

175   XDIPLEN   XDIPLEN    0.179000      192.103179       96.988877
176   YDIPLEN   YDIPLEN    0.179000      209.010011       50.803440
177   ZDIPLEN   ZDIPLEN    0.179000      178.254708       13.232782
178   XDIPLEN   YDIPLEN    0.179000      -95.539888       15.462308
179   XDIPLEN   ZDIPLEN    0.179000       37.707280      -15.540077
180   YDIPLEN   ZDIPLEN    0.179000      -12.063723        7.925659

      Averaged value       0.179000      193.122632       53.675033

181   XDIPLEN   XDIPLEN    0.180000      208.880731       93.294809
182   YDIPLEN   YDIPLEN    0.180000      216.499512       51.764947
183   ZDIPLEN   ZDIPLEN    0.180000      180.269796       13.053145
184   XDIPLEN   YDIPLEN    0.180000      -91.628419        9.470179
185   XDIPLEN   ZDIPLEN    0.180000       35.330677      -15.698526
186   YDIPLEN   ZDIPLEN    0.180000      -11.623659        8.735871

      Averaged value       0.180000      201.883347       52.704300

187   XDIPLEN   XDIPLEN    0.181000      224.464737       91.510139
188   YDIPLEN   YDIPLEN    0.181000      223.234542       54.191304
189   ZDIPLEN   ZDIPLEN    0.181000      182.187167       13.202937
190   XDIPLEN   YDIPLEN    0.181000      -87.721305        3.169155
191   XDIPLEN   ZDIPLEN    0.181000       33.291807      -16.302650
192   YDIPLEN   ZDIPLEN    0.181000      -11.379913       10.024543

      Averaged value       0.181000      209.962149       52.968126

193   XDIPLEN   XDIPLEN    0.182000      238.596685       91.538570
194   YDIPLEN   YDIPLEN    0.182000      228.684523       58.062514
195   ZDIPLEN   ZDIPLEN    0.182000      183.914016       13.653979
196   XDIPLEN   YDIPLEN    0.182000      -83.328438       -3.611031
197   XDIPLEN   ZDIPLEN    0.182000       31.739634      -17.359935
198   YDIPLEN   ZDIPLEN    0.182000      -11.572055       11.785604

      Averaged value       0.182000      217.065074       54.418355

199   XDIPLEN   XDIPLEN    0.183000      250.809945       93.124466
200   YDIPLEN   YDIPLEN    0.183000      232.102722       63.046929
201   ZDIPLEN   ZDIPLEN    0.183000      185.333531       14.332977
202   XDIPLEN   YDIPLEN    0.183000      -77.753815      -10.757847
203   XDIPLEN   ZDIPLEN    0.183000       30.907766      -18.778822
204   YDIPLEN   ZDIPLEN    0.183000      -12.513887       13.884759

      Averaged value       0.183000      222.748733       56.834790

205   XDIPLEN   XDIPLEN    0.184000      260.552770       95.593244
206   YDIPLEN   YDIPLEN    0.184000      232.767560       68.192805
207   ZDIPLEN   ZDIPLEN    0.184000      186.343592       15.074950
208   XDIPLEN   YDIPLEN    0.184000      -70.272153      -17.607641
209   XDIPLEN   ZDIPLEN    0.184000       31.041207      -20.263894
210   YDIPLEN   ZDIPLEN    0.184000      -14.495688       15.941547

      Averaged value       0.184000      226.554641       59.620333

211   XDIPLEN   XDIPLEN    0.185000      267.633329       97.695593
212   YDIPLEN   YDIPLEN    0.185000      230.612197       71.878947
213   ZDIPLEN   ZDIPLEN    0.185000      186.953962       15.624082
214   XDIPLEN   YDIPLEN    0.185000      -60.654290      -22.837305
215   XDIPLEN   ZDIPLEN    0.185000       32.191697      -21.280450
216   YDIPLEN   ZDIPLEN    0.185000      -17.536560       17.321772

      Averaged value       0.185000      228.399829       61.732874

217   XDIPLEN   XDIPLEN    0.186000      272.834650       98.001544
218   YDIPLEN   YDIPLEN    0.186000      226.849874       72.504739
219   ZDIPLEN   ZDIPLEN    0.186000      187.369278       15.748673
220   XDIPLEN   YDIPLEN    0.186000      -49.801566      -24.982076
221   XDIPLEN   ZDIPLEN    0.186000       33.984930      -21.261149
222   YDIPLEN   ZDIPLEN    0.186000      -21.155433       17.419385

      Averaged value       0.186000      229.017934       62.084985

223   XDIPLEN   XDIPLEN    0.187000      277.902622       95.928544
224   YDIPLEN   YDIPLEN    0.187000      223.671477       69.686176
225   ZDIPLEN   ZDIPLEN    0.187000      187.924449       15.413220
226   XDIPLEN   YDIPLEN    0.187000      -39.638418      -23.549350
227   XDIPLEN   ZDIPLEN    0.187000       35.680486      -20.022863
228   YDIPLEN   ZDIPLEN    0.187000      -24.511014       16.110442

      Averaged value       0.187000      229.832850       60.342647

229   XDIPLEN   XDIPLEN    0.188000      284.417983       92.304010
230   YDIPLEN   YDIPLEN    0.188000      222.859665       64.649391
231   ZDIPLEN   ZDIPLEN    0.188000      188.878639       14.816742
232   XDIPLEN   YDIPLEN    0.188000      -31.897193      -19.550667
233   XDIPLEN   ZDIPLEN    0.188000       36.638111      -17.945211
234   YDIPLEN   ZDIPLEN    0.188000      -26.933642       13.880847

      Averaged value       0.188000      232.052096       57.256714

235   XDIPLEN   XDIPLEN    0.189000      292.779245       88.554519
236   YDIPLEN   YDIPLEN    0.189000      224.794547       59.190981
237   ZDIPLEN   ZDIPLEN    0.189000      190.283725       14.235220
238   XDIPLEN   YDIPLEN    0.189000      -27.104795      -14.660238
239   XDIPLEN   ZDIPLEN    0.189000       36.688913      -15.632740
240   YDIPLEN   ZDIPLEN    0.189000      -28.287174       11.425532

      Averaged value       0.189000      235.952506       53.993573

241   XDIPLEN   XDIPLEN    0.190000      302.447514       85.597132
242   YDIPLEN   YDIPLEN    0.190000      228.825461       54.522161
243   ZDIPLEN   ZDIPLEN    0.190000      192.043584       13.863424
244   XDIPLEN   YDIPLEN    0.190000      -24.812032      -10.168000
245   XDIPLEN   ZDIPLEN    0.190000       36.026979      -13.507276
246   YDIPLEN   ZDIPLEN    0.190000      -28.823878        9.225093

      Averaged value       0.190000      241.105519       51.327572

247   XDIPLEN   XDIPLEN    0.191000      312.787661       83.576289
248   YDIPLEN   YDIPLEN    0.191000      234.125585       51.054534
249   ZDIPLEN   ZDIPLEN    0.191000      194.028578       13.790670
250   XDIPLEN   YDIPLEN    0.191000      -24.261067       -6.743290
251   XDIPLEN   ZDIPLEN    0.191000       34.919670      -11.722130
252   YDIPLEN   ZDIPLEN    0.191000      -28.880789        7.472017

      Averaged value       0.191000      246.980608       49.473831

253   XDIPLEN   XDIPLEN    0.192000      323.578560       82.291765
254   YDIPLEN   YDIPLEN    0.192000      240.143760       48.767209
255   ZDIPLEN   ZDIPLEN    0.192000      196.128267       14.047226
256   XDIPLEN   YDIPLEN    0.192000      -24.716877       -4.608097
257   XDIPLEN   ZDIPLEN    0.192000       33.549630      -10.275955
258   YDIPLEN   ZDIPLEN    0.192000      -28.730183        6.185838

      Averaged value       0.192000      253.283529       48.368733

259   XDIPLEN   XDIPLEN    0.193000      334.918533       81.705891
260   YDIPLEN   YDIPLEN    0.193000      246.604016       47.577251
261   ZDIPLEN   ZDIPLEN    0.193000      198.249051       14.642360
262   XDIPLEN   YDIPLEN    0.193000      -25.604282       -3.670987
263   XDIPLEN   ZDIPLEN    0.193000       31.995968       -9.133531
264   YDIPLEN   ZDIPLEN    0.193000      -28.564088        5.314055

      Averaged value       0.193000      259.923867       47.975167

265   XDIPLEN   XDIPLEN    0.194000      346.834625       82.016960
266   YDIPLEN   YDIPLEN    0.194000      253.325609       47.470358
267   ZDIPLEN   ZDIPLEN    0.194000      200.295097       15.572284
268   XDIPLEN   YDIPLEN    0.194000      -26.620094       -3.701600
269   XDIPLEN   ZDIPLEN    0.194000       30.274988       -8.297196
270   YDIPLEN   ZDIPLEN    0.194000      -28.517733        4.776427

      Averaged value       0.194000      266.818444       48.353200

271   XDIPLEN   XDIPLEN    0.195000      359.157264       83.381754
272   YDIPLEN   YDIPLEN    0.195000      260.117267       48.453570
273   ZDIPLEN   ZDIPLEN    0.195000      202.159728       16.804425
274   XDIPLEN   YDIPLEN    0.195000      -27.683377       -4.561280
275   XDIPLEN   ZDIPLEN    0.195000       28.403186       -7.839739
276   YDIPLEN   ZDIPLEN    0.195000      -28.684607        4.474184

      Averaged value       0.195000      273.811420       49.546583

277   XDIPLEN   XDIPLEN    0.196000      371.720811       85.770544
278   YDIPLEN   YDIPLEN    0.196000      266.780734       50.509805
279   ZDIPLEN   ZDIPLEN    0.196000      203.740405       18.259820
280   XDIPLEN   YDIPLEN    0.196000      -28.725148       -6.291712
281   XDIPLEN   ZDIPLEN    0.196000       26.484383       -7.886994
282   YDIPLEN   ZDIPLEN    0.196000      -29.108660        4.298924

      Averaged value       0.196000      280.747317       51.513390

283   XDIPLEN   XDIPLEN    0.197000      384.534045       89.113005
284   YDIPLEN   YDIPLEN    0.197000      273.111167       53.610798
285   ZDIPLEN   ZDIPLEN    0.197000      204.959161       19.814446
286   XDIPLEN   YDIPLEN    0.197000      -29.514485       -8.990617
287   XDIPLEN   ZDIPLEN    0.197000       24.768118       -8.504517
288   YDIPLEN   ZDIPLEN    0.197000      -29.786734        4.173898

      Averaged value       0.197000      287.534791       54.179417

289   XDIPLEN   XDIPLEN    0.198000      397.680285       93.484371
290   YDIPLEN   YDIPLEN    0.198000      278.834119       57.689796
291   ZDIPLEN   ZDIPLEN    0.198000      205.771215       21.289413
292   XDIPLEN   YDIPLEN    0.198000      -29.677032      -12.605304
293   XDIPLEN   ZDIPLEN    0.198000       23.563644       -9.549966
294   YDIPLEN   ZDIPLEN    0.198000      -30.738421        4.079260

      Averaged value       0.198000      294.095206       57.487860

295   XDIPLEN   XDIPLEN    0.199000      411.140985       99.031130
296   YDIPLEN   YDIPLEN    0.199000      283.617663       62.477724
297   ZDIPLEN   ZDIPLEN    0.199000      206.233321       22.425796
298   XDIPLEN   YDIPLEN    0.199000      -28.874543      -16.826805
299   XDIPLEN   ZDIPLEN    0.199000       23.040457      -10.662564
300   YDIPLEN   ZDIPLEN    0.199000      -32.073980        3.959328

      Averaged value       0.199000      300.330656       61.311550

301   XDIPLEN   XDIPLEN    0.200000      424.887779      105.806154
302   YDIPLEN   YDIPLEN    0.200000      287.361587       67.400747
303   ZDIPLEN   ZDIPLEN    0.200000      206.620316       22.989314
304   XDIPLEN   YDIPLEN    0.200000      -27.040393      -21.148056
305   XDIPLEN   ZDIPLEN    0.200000       23.087329      -11.419974
306   YDIPLEN   ZDIPLEN    0.200000      -33.890377        3.587312

      Averaged value       0.200000      306.289894       65.398738
 
 ------------------------------------------------------------------
 Damping parameter equals  0.004557 au = 0.1240 eV = 1000.1 cm-1

  Total CPU  time used in RESPONSE:  18 hours 42 minutes 41 seconds
  Total wall time used in RESPONSE:  18 hours 43 minutes 16 seconds


                   .-------------------------------------------.
                   | End of Dynamic Property Section (RESPONS) |
                   `-------------------------------------------'

  Total CPU  time used in DALTON:  24 hours  8 minutes 37 seconds
  Total wall time used in DALTON:  24 hours  9 minutes 29 seconds

 
     Date and time (Linux)  : Wed Sep 11 09:04:22 2019
     Host name              : node361.cluster                         
