

     ************************************************************************
     *************** Dalton - An Electronic Structure Program ***************
     ************************************************************************

    This is output from DALTON release Dalton2016.1 (2016)
         ( Web site: http://daltonprogram.org )

   ----------------------------------------------------------------------------

    NOTE:
     
    Dalton is an experimental code for the evaluation of molecular
    properties using (MC)SCF, DFT, CI, and CC wave functions.
    The authors accept no responsibility for the performance of
    the code or for the correctness of the results.
     
    The code (in whole or part) is provided under a licence and
    is not to be reproduced for further distribution without
    the written permission of the authors or their representatives.
     
    See the home page "http://daltonprogram.org" for further information.
     
    If results obtained with this code are published,
    the appropriate citations would be both of:
     
       K. Aidas, C. Angeli, K. L. Bak, V. Bakken, R. Bast,
       L. Boman, O. Christiansen, R. Cimiraglia, S. Coriani,
       P. Dahle, E. K. Dalskov, U. Ekstroem,
       T. Enevoldsen, J. J. Eriksen, P. Ettenhuber, B. Fernandez,
       L. Ferrighi, H. Fliegl, L. Frediani, K. Hald, A. Halkier,
       C. Haettig, H. Heiberg, T. Helgaker, A. C. Hennum,
       H. Hettema, E. Hjertenaes, S. Hoest, I.-M. Hoeyvik,
       M. F. Iozzi, B. Jansik, H. J. Aa. Jensen, D. Jonsson,
       P. Joergensen, J. Kauczor, S. Kirpekar,
       T. Kjaergaard, W. Klopper, S. Knecht, R. Kobayashi, H. Koch,
       J. Kongsted, A. Krapp, K. Kristensen, A. Ligabue,
       O. B. Lutnaes, J. I. Melo, K. V. Mikkelsen, R. H. Myhre,
       C. Neiss, C. B. Nielsen, P. Norman, J. Olsen,
       J. M. H. Olsen, A. Osted, M. J. Packer, F. Pawlowski,
       T. B. Pedersen, P. F. Provasi, S. Reine, Z. Rinkevicius,
       T. A. Ruden, K. Ruud, V. Rybkin, P. Salek, C. C. M. Samson,
       A. Sanchez de Meras, T. Saue, S. P. A. Sauer,
       B. Schimmelpfennig, K. Sneskov, A. H. Steindal,
       K. O. Sylvester-Hvid, P. R. Taylor, A. M. Teale,
       E. I. Tellgren, D. P. Tew, A. J. Thorvaldsen, L. Thoegersen,
       O. Vahtras, M. A. Watson, D. J. D. Wilson, M. Ziolkowski
       and H. Agren,
       "The Dalton quantum chemistry program system",
       WIREs Comput. Mol. Sci. 2014, 4:269–284 (doi: 10.1002/wcms.1172)
     
    and
     
       Dalton, a Molecular Electronic Structure Program,
       Release Dalton2016.1 (2016), see http://daltonprogram.org
   ----------------------------------------------------------------------------

    Authors in alphabetical order (major contribution(s) in parenthesis):

  Kestutis Aidas,           Vilnius University,           Lithuania   (QM/MM)
  Celestino Angeli,         University of Ferrara,        Italy       (NEVPT2)
  Keld L. Bak,              UNI-C,                        Denmark     (AOSOPPA, non-adiabatic coupling, magnetic properties)
  Vebjoern Bakken,          University of Oslo,           Norway      (DALTON; geometry optimizer, symmetry detection)
  Radovan Bast,             UiT The Arctic U. of Norway,  Norway      (DALTON installation and execution frameworks)
  Pablo Baudin,             University of Valencia,       Spain       (Cholesky excitation energies)
  Linus Boman,              NTNU,                         Norway      (Cholesky decomposition and subsystems)
  Ove Christiansen,         Aarhus University,            Denmark     (CC module)
  Renzo Cimiraglia,         University of Ferrara,        Italy       (NEVPT2)
  Sonia Coriani,            University of Trieste,        Italy       (CC module, MCD in RESPONS)
  Janusz Cukras,            University of Trieste,        Italy       (MChD in RESPONS)
  Paal Dahle,               University of Oslo,           Norway      (Parallelization)
  Erik K. Dalskov,          UNI-C,                        Denmark     (SOPPA)
  Thomas Enevoldsen,        Univ. of Southern Denmark,    Denmark     (SOPPA)
  Janus J. Eriksen,         Aarhus University,            Denmark     (Polarizable embedding model, TDA)
  Rasmus Faber,             University of Copenhagen,     Denmark     (Vib.avg. NMR with SOPPA, parallel AO-SOPPA)
  Berta Fernandez,          U. of Santiago de Compostela, Spain       (doublet spin, ESR in RESPONS)
  Lara Ferrighi,            Aarhus University,            Denmark     (PCM Cubic response)
  Heike Fliegl,             University of Oslo,           Norway      (CCSD(R12))
  Luca Frediani,            UiT The Arctic U. of Norway,  Norway      (PCM)
  Bin Gao,                  UiT The Arctic U. of Norway,  Norway      (Gen1Int library)
  Christof Haettig,         Ruhr-University Bochum,       Germany     (CC module)
  Kasper Hald,              Aarhus University,            Denmark     (CC module)
  Asger Halkier,            Aarhus University,            Denmark     (CC module)
  Frederik Beyer Hansen,    University of Copenhagen,     Denmark     (Parallel AO-SOPPA)
  Erik D. Hedegaard,        Univ. of Southern Denmark,    Denmark     (Polarizable embedding model, QM/MM)
  Hanne Heiberg,            University of Oslo,           Norway      (geometry analysis, selected one-electron integrals)
  Trygve Helgaker,          University of Oslo,           Norway      (DALTON; ABACUS, ERI, DFT modules, London, and much more)
  Alf Christian Hennum,     University of Oslo,           Norway      (Parity violation)
  Hinne Hettema,            University of Auckland,       New Zealand (quadratic response in RESPONS; SIRIUS supersymmetry)
  Eirik Hjertenaes,         NTNU,                         Norway      (Cholesky decomposition)
  Maria Francesca Iozzi,    University of Oslo,           Norway      (RPA)
  Brano Jansik              Technical Univ. of Ostrava    Czech Rep.  (DFT cubic response)
  Hans Joergen Aa. Jensen,  Univ. of Southern Denmark,    Denmark     (DALTON; SIRIUS, RESPONS, ABACUS modules, London, and much more)
  Dan Jonsson,              UiT The Arctic U. of Norway,  Norway      (cubic response in RESPONS module)
  Poul Joergensen,          Aarhus University,            Denmark     (RESPONS, ABACUS, and CC modules)
  Maciej Kaminski,          University of Warsaw,         Poland      (CPPh in RESPONS)
  Joanna Kauczor,           Linkoeping University,        Sweden      (Complex polarization propagator (CPP) module)
  Sheela Kirpekar,          Univ. of Southern Denmark,    Denmark     (Mass-velocity & Darwin integrals)
  Wim Klopper,              KIT Karlsruhe,                Germany     (R12 code in CC, SIRIUS, and ABACUS modules)
  Stefan Knecht,            ETH Zurich,                   Switzerland (Parallel CI and MCSCF)
  Rika Kobayashi,           Australian National Univ.,    Australia   (DIIS in CC, London in MCSCF)
  Henrik Koch,              NTNU,                         Norway      (CC module, Cholesky decomposition)
  Jacob Kongsted,           Univ. of Southern Denmark,    Denmark     (Polarizable embedding model, QM/MM)
  Andrea Ligabue,           University of Modena,         Italy       (CTOCD, AOSOPPA)
  Nanna H. List             Univ. of Southern Denmark,    Denmark     (Polarizable embedding model)
  Ola B. Lutnaes,           University of Oslo,           Norway      (DFT Hessian)
  Juan I. Melo,             University of Buenos Aires,   Argentina   (LRESC, Relativistic Effects on NMR Shieldings)
  Kurt V. Mikkelsen,        University of Copenhagen,     Denmark     (MC-SCRF and QM/MM)
  Rolf H. Myhre,            NTNU,                         Norway      (Cholesky, subsystems and ECC2)
  Christian Neiss,          Univ. Erlangen-Nuernberg,     Germany     (CCSD(R12))
  Christian B. Nielsen,     University of Copenhagen,     Denmark     (QM/MM)
  Patrick Norman,           Linkoeping University,        Sweden      (Cubic response and complex frequency response in RESPONS)
  Jeppe Olsen,              Aarhus University,            Denmark     (SIRIUS CI/density modules)
  Jogvan Magnus H. Olsen,   Univ. of Southern Denmark,    Denmark     (Polarizable embedding model, QM/MM)
  Anders Osted,             Copenhagen University,        Denmark     (QM/MM)
  Martin J. Packer,         University of Sheffield,      UK          (SOPPA)
  Filip Pawlowski,          Kazimierz Wielki University,  Poland      (CC3)
  Morten N. Pedersen,       Univ. of Southern Denmark,    Denmark     (Polarizable embedding model)
  Thomas B. Pedersen,       University of Oslo,           Norway      (Cholesky decomposition)
  Patricio F. Provasi,      University of Northeastern,   Argentina   (Analysis of coupling constants in localized orbitals)
  Zilvinas Rinkevicius,     KTH Stockholm,                Sweden      (open-shell DFT, ESR)
  Elias Rudberg,            KTH Stockholm,                Sweden      (DFT grid and basis info)
  Torgeir A. Ruden,         University of Oslo,           Norway      (Numerical derivatives in ABACUS)
  Kenneth Ruud,             UiT The Arctic U. of Norway,  Norway      (DALTON; ABACUS magnetic properties and much more)
  Pawel Salek,              KTH Stockholm,                Sweden      (DALTON; DFT code)
  Claire C. M. Samson       University of Karlsruhe       Germany     (Boys localization, r12 integrals in ERI)
  Alfredo Sanchez de Meras, University of Valencia,       Spain       (CC module, Cholesky decomposition)
  Trond Saue,               Paul Sabatier University,     France      (direct Fock matrix construction)
  Stephan P. A. Sauer,      University of Copenhagen,     Denmark     (SOPPA(CCSD), SOPPA prop., AOSOPPA, vibrational g-factors)
  Bernd Schimmelpfennig,    Forschungszentrum Karlsruhe,  Germany     (AMFI module)
  Kristian Sneskov,         Aarhus University,            Denmark     (Polarizable embedding model, QM/MM)
  Arnfinn H. Steindal,      UiT The Arctic U. of Norway,  Norway      (parallel QM/MM, Polarizable embedding model)
  Casper Steinmann,         Univ. of Southern Denmark,    Denmark     (QFIT, Polarizable embedding model)
  K. O. Sylvester-Hvid,     University of Copenhagen,     Denmark     (MC-SCRF)
  Peter R. Taylor,          VLSCI/Univ. of Melbourne,     Australia   (Symmetry handling ABACUS, integral transformation)
  Andrew M. Teale,          University of Nottingham,     England     (DFT-AC, DFT-D)
  David P. Tew,             University of Bristol,        England     (CCSD(R12))
  Olav Vahtras,             KTH Stockholm,                Sweden      (triplet response, spin-orbit, ESR, TDDFT, open-shell DFT)
  David J. Wilson,          La Trobe University,          Australia   (DFT Hessian and DFT magnetizabilities)
  Hans Agren,               KTH Stockholm,                Sweden      (SIRIUS module, RESPONS, MC-SCRF solvation model)
 --------------------------------------------------------------------------------

     Date and time (Linux)  : Tue Sep 10 08:42:10 2019
     Host name              : node358.cluster                         

 * Work memory size             :  2048000000 = 15.259 gigabytes.

 * Directories for basis set searches:
   1) /groups/kemi/andreasb/DHAVHF_exc/imag_polar/VHF_trans
   2) /lustre/hpc/software/kemi/DALTON2016/build-parallel/basis


Compilation information
-----------------------

 Who compiled             | sauer
 Host                     | fend01.cluster
 System                   | Linux-2.6.32-642.6.2.el6.x86_64
 CMake generator          | Unix Makefiles
 Processor                | x86_64
 64-bit integers          | OFF
 MPI                      | ON
 Fortran compiler         | /software/kemi/openmpi-1.6.5-i4/bin/mpif90
 Fortran compiler version | ifort (IFORT) 13.0.1 20121010
 C compiler               | /software/kemi/openmpi-1.6.5-i4/bin/mpicc
 C compiler version       | icc (ICC) 13.0.1 20121010
 C++ compiler             | /software/kemi/openmpi-1.6.5-i4/bin/mpicxx
 C++ compiler version     | unknown
 BLAS                     | /users/software/kemi/intel/Compiler/composer_xe_20
                          | 13.1.117/mkl/lib/intel64/libmkl_intel_lp64.so;/use
                          | rs/software/kemi/intel/Compiler/composer_xe_2013.1
                          | .117/mkl/lib/intel64/libmkl_sequential.so;/users/s
                          | oftware/kemi/intel/Compiler/composer_xe_2013.1.117
                          | /mkl/lib/intel64/libmkl_core.so;/usr/lib64/libpthr
                          | ead.so;/usr/lib64/libm.so
 LAPACK                   | /users/software/kemi/intel/Compiler/composer_xe_20
                          | 13.1.117/mkl/lib/intel64/libmkl_lapack95_lp64.a;/u
                          | sers/software/kemi/intel/Compiler/composer_xe_2013
                          | .1.117/mkl/lib/intel64/libmkl_intel_lp64.so
 Static linking           | OFF
 Last Git revision        | a10ef0cf7cc62686ecfeaafb7364c9b014fdc003
 Configuration time       | 2017-07-05 12:54:37.340882

 * MPI run using 8 processes.


   Content of the .dal input file
 ----------------------------------

**DALTON                                          
.RUN RESPONSE                                     
.DIRECT                                           
**WAVE FUNCTIONS                                  
.DFT                                              
CAMB3LYP                                          
**RESPONSE                                        
*ABSORPTION                                       
.ALPHA                                            
.DAMPING                                          
 0.0045566                                        
.FREQ INTERVAL                                    
 0.05 0.10 0.001                                  
**END OF                                          


   Content of the .mol file
 ----------------------------

ATOMBASIS                                                                      
VHF_trans.xyz                                                                  
Hej Bendte                                                                     
Atomtypes=3 Charge=0 Nosymmetry Angstrom                                       
  7.0000     3 Bas=aug-cc-pVDZ                                                 
N    1.350260000       -4.003450000       -0.723930000                         
N    4.437170000       -0.969950000       -0.525430000                         
N   -0.414850000       -2.205130000        1.405920000                         
  6.0000    18 Bas=aug-cc-pVDZ                                                 
C   -1.536260000       -0.440500000        0.220090000                         
C   -2.742610000       -0.847040000        0.929990000                         
C   -4.044840000       -0.569920000        0.697170000                         
C   -4.660100000        0.191740000       -0.363220000                         
C   -4.036050000        0.948980000       -1.288530000                         
C   -2.615540000        1.155940000       -1.445760000                         
C   -1.567070000        0.569490000       -0.825780000                         
C    1.935240000       -1.535590000       -0.231700000                         
C    0.972160000       -0.625800000        0.135930000                         
C   -0.356890000       -1.077870000        0.560310000                         
C    1.611910000       -2.904450000       -0.501110000                         
C    3.317450000       -1.202610000       -0.392780000                         
C    1.305630000        0.814170000        0.230970000                         
C    2.073670000        1.450510000       -0.750660000                         
C    0.823530000        1.560900000        1.311470000                         
C    2.354110000        2.806020000       -0.650410000                         
C    1.118490000        2.913750000        1.415830000                         
C    1.881080000        3.539170000        0.434230000                         
  1.0000    13 Bas=aug-cc-pVDZ                                                 
H    0.224040000        1.072560000        2.071630000                         
H    0.751730000        3.480510000        2.263830000                         
H   -2.538430000       -1.452920000        1.806820000                         
H   -4.743630000       -0.988640000        1.416270000                         
H   -5.745050000        0.165430000       -0.390190000                         
H   -4.661960000        1.477490000       -2.001110000                         
H   -2.350220000        1.871340000       -2.218790000                         
H   -0.597890000        0.873480000       -1.202500000                         
H    2.428390000        0.889990000       -1.608190000                         
H    2.940490000        3.290900000       -1.422180000                         
H    2.104850000        4.597090000        0.512630000                         
H    0.486950000       -2.509980000        1.743610000                         
H   -0.910800000       -2.998840000        1.015890000                         


       *******************************************************************
       *********** Output from DALTON general input processing ***********
       *******************************************************************

 --------------------------------------------------------------------------------
   Overall default print level:    0
   Print level for DALTON.STAT:    1

    Parallel calculation using MPI
    AO-direct calculation (in sections where implemented)
    HERMIT 1- and 2-electron integral sections will be executed
    "Old" integral transformation used (limited to max 255 basis functions)
    Wave function sections will be executed (SIRIUS module)
    Dynamic molecular response properties section will be executed (RESPONSE module)
 --------------------------------------------------------------------------------


   ****************************************************************************
   *************** Output of molecule and basis set information ***************
   ****************************************************************************


    The two title cards from your ".mol" input:
    ------------------------------------------------------------------------
 1: VHF_trans.xyz                                                           
 2: Hej Bendte                                                              
    ------------------------------------------------------------------------

  Coordinates are entered in Angstrom and converted to atomic units.
          - Conversion factor : 1 bohr = 0.52917721 A

  Atomic type no.    1
  --------------------
  Nuclear charge:   7.00000
  Number of symmetry independent centers:    3
  Number of basis sets to read;    2
  The basis set is "aug-cc-pVDZ" from the basis set library.
  Basis set file used for this atomic type with Z =   7 :
     "/lustre/hpc/software/kemi/DALTON2016/build-parallel/basis/aug-cc-pVDZ"

  Atomic type no.    2
  --------------------
  Nuclear charge:   6.00000
  Number of symmetry independent centers:   18
  Number of basis sets to read;    2
  The basis set is "aug-cc-pVDZ" from the basis set library.
  Basis set file used for this atomic type with Z =   6 :
     "/lustre/hpc/software/kemi/DALTON2016/build-parallel/basis/aug-cc-pVDZ"

  Atomic type no.    3
  --------------------
  Nuclear charge:   1.00000
  Number of symmetry independent centers:   13
  Number of basis sets to read;    2
  The basis set is "aug-cc-pVDZ" from the basis set library.
  Basis set file used for this atomic type with Z =   1 :
     "/lustre/hpc/software/kemi/DALTON2016/build-parallel/basis/aug-cc-pVDZ"


                         SYMGRP: Point group information
                         -------------------------------

@    Point group: C1 


                                 Isotopic Masses
                                 ---------------

                           N          14.003074
                           N          14.003074
                           N          14.003074
                           C          12.000000
                           C          12.000000
                           C          12.000000
                           C          12.000000
                           C          12.000000
                           C          12.000000
                           C          12.000000
                           C          12.000000
                           C          12.000000
                           C          12.000000
                           C          12.000000
                           C          12.000000
                           C          12.000000
                           C          12.000000
                           C          12.000000
                           C          12.000000
                           C          12.000000
                           C          12.000000
                           H           1.007825
                           H           1.007825
                           H           1.007825
                           H           1.007825
                           H           1.007825
                           H           1.007825
                           H           1.007825
                           H           1.007825
                           H           1.007825
                           H           1.007825
                           H           1.007825
                           H           1.007825
                           H           1.007825

                       Total mass:   271.110947 amu
                       Natural abundance:  80.883 %

 Center-of-mass coordinates (a.u.):    0.087333   -0.067709   -0.013745


  Atoms and basis sets
  --------------------

  Number of atom types :    3
  Total number of atoms:   34

  label    atoms   charge   prim   cont     basis
  ----------------------------------------------------------------------
  N           3    7.0000    35    23      [10s5p2d|4s3p2d]                                   
  C          18    6.0000    35    23      [10s5p2d|4s3p2d]                                   
  H          13    1.0000    11     9      [5s2p|3s2p]                                        
  ----------------------------------------------------------------------
  total:     34  142.0000   878   600
  ----------------------------------------------------------------------
  Spherical harmonic basis used.

  Threshold for neglecting AO integrals:  1.00D-12

  Max    interatomic separation is   10.2462 Angstrom (   19.3625 Bohr)
  between atoms   26 and    2, "H     " and "N     ".

  Min HX interatomic separation is    1.0101 Angstrom (    1.9087 Bohr)

  Min YX interatomic separation is    1.1513 Angstrom (    2.1756 Bohr)


  Bond distances (Angstrom):
  --------------------------

                  atom 1     atom 2       distance
                  ------     ------       --------
  bond distance:  C          C            1.457571
  bond distance:  C          C            1.351593
  bond distance:  C          C            1.443294
  bond distance:  C          C            1.348721
  bond distance:  C          C            1.444092
  bond distance:  C          C            1.454260
  bond distance:  C          C            1.351883
  bond distance:  C          C            1.374916
  bond distance:  C          N            1.410365
  bond distance:  C          C            1.383078
  bond distance:  C          C            1.466574
  bond distance:  C          N            1.151482
  bond distance:  C          C            1.432097
  bond distance:  C          N            1.151303
  bond distance:  C          C            1.430848
  bond distance:  C          C            1.481131
  bond distance:  C          C            1.399433
  bond distance:  C          C            1.399109
  bond distance:  C          C            1.387841
  bond distance:  C          C            1.388559
  bond distance:  C          C            1.392017
  bond distance:  C          C            1.391486
  bond distance:  H          C            1.084300
  bond distance:  H          C            1.083898
  bond distance:  H          C            1.085178
  bond distance:  H          C            1.086618
  bond distance:  H          C            1.085604
  bond distance:  H          C            1.085752
  bond distance:  H          C            1.086171
  bond distance:  H          C            1.083346
  bond distance:  H          C            1.084143
  bond distance:  H          C            1.083780
  bond distance:  H          C            1.084165
  bond distance:  H          N            1.010055
  bond distance:  H          N            1.013936


  Bond angles (degrees):
  ----------------------

                  atom 1     atom 2     atom 3         angle
                  ------     ------     ------         -----
  bond angle:     C          N          H            113.891
  bond angle:     C          N          H            114.528
  bond angle:     H          N          H            109.211
  bond angle:     C          C          C            121.766
  bond angle:     C          C          C            117.220
  bond angle:     C          C          C            120.999
  bond angle:     C          C          C            131.021
  bond angle:     C          C          H            113.175
  bond angle:     C          C          H            115.781
  bond angle:     C          C          C            130.201
  bond angle:     C          C          H            115.252
  bond angle:     C          C          H            114.546
  bond angle:     C          C          C            127.092
  bond angle:     C          C          H            115.562
  bond angle:     C          C          H            117.321
  bond angle:     C          C          C            127.611
  bond angle:     C          C          H            117.183
  bond angle:     C          C          H            115.204
  bond angle:     C          C          C            130.602
  bond angle:     C          C          H            114.341
  bond angle:     C          C          H            115.003
  bond angle:     C          C          C            130.355
  bond angle:     C          C          H            115.215
  bond angle:     C          C          H            114.370
  bond angle:     C          C          C            121.644
  bond angle:     C          C          C            123.557
  bond angle:     C          C          C            114.794
  bond angle:     C          C          C            120.543
  bond angle:     C          C          C            120.183
  bond angle:     C          C          C            119.022
  bond angle:     N          C          C            118.736
  bond angle:     N          C          C            117.201
  bond angle:     C          C          C            124.023
  bond angle:     N          C          C            179.670
  bond angle:     N          C          C            178.199
  bond angle:     C          C          C            121.375
  bond angle:     C          C          C            119.397
  bond angle:     C          C          C            119.218
  bond angle:     C          C          C            120.288
  bond angle:     C          C          H            119.954
  bond angle:     C          C          H            119.735
  bond angle:     C          C          C            120.321
  bond angle:     C          C          H            119.443
  bond angle:     C          C          H            120.235
  bond angle:     C          C          C            120.134
  bond angle:     C          C          H            119.661
  bond angle:     C          C          H            120.204
  bond angle:     C          C          C            120.086
  bond angle:     C          C          H            119.760
  bond angle:     C          C          H            120.154
  bond angle:     C          C          C            119.945
  bond angle:     C          C          H            120.009
  bond angle:     C          C          H            120.045




 Principal moments of inertia (u*A**2) and principal axes
 --------------------------------------------------------

   IA    1210.615506          0.999583   -0.028844   -0.001041
   IB    1936.095953          0.028857    0.999443    0.016738
   IC    2719.571691          0.000558   -0.016761    0.999859


 Rotational constants
 --------------------

               A                   B                   C

            417.4562            261.0299            185.8304 MHz
            0.013925            0.008707            0.006199 cm-1


@  Nuclear repulsion energy : 1474.303175433221 Hartree


                     .---------------------------------------.
                     | Starting in Integral Section (HERMIT) |
                     `---------------------------------------'



 ***************************************************************************************
 ****************** Output from **INTEGRALS input processing (HERMIT) ******************
 ***************************************************************************************


 - Using defaults, no **INTEGRALS input found

 Default print level:        1

 * Nuclear model: Point charge

 Calculation of one-electron Hamiltonian integrals.

 Center of mass  (bohr):      0.087333328132     -0.067709261796     -0.013744918457
 Operator center (bohr):      0.000000000000      0.000000000000      0.000000000000
 Gauge origin    (bohr):      0.000000000000      0.000000000000      0.000000000000
 Dipole origin   (bohr):      0.000000000000      0.000000000000      0.000000000000


     ************************************************************************
     ************************** Output from HERINT **************************
     ************************************************************************

  Time used in ONEDRV     is       1.74 seconds
  Time used in HUCKEL     is       0.57 seconds
  Time used in OVERLAP    is       0.24 seconds
  Time used in POPOVLP    is       0.46 seconds
  Time used in DIPLEN     is       0.27 seconds
  Time used in QUADRUP    is       0.72 seconds
  Time used in KINENE     is       0.61 seconds
  Time used in GABGEN     is       2.62 seconds
  Total CPU  time used in HERMIT:   7.24 seconds
  Total wall time used in HERMIT:   7.64 seconds


                        .----------------------------------.
                        | End of Integral Section (HERMIT) |
                        `----------------------------------'



                   .--------------------------------------------.
                   | Starting in Wave Function Section (SIRIUS) |
                   `--------------------------------------------'



@ Primary orbitals are deleted during canonical orthonormalization
@   because of detected numerical linear dependence or too large coefficients.
@ Eigenvalue threshold for num. lin. dep. =  1.00D-06

@   2 MO components are deleted in symmetry    1
 Overlap eigenvalues of the deleted orbitals:
  8.50D-07  6.50D-07

 Max MO coeff. of last deleted MO & limit:  6.22D+02  1.00D+03

WARNING: Orbitals have been deleted because of numerical
   linear dependence although not requested in input.

 *** Output from Huckel module :

     Using EWMO model:          T
     Using EHT  model:          F
     Number of Huckel orbitals each symmetry:  118

 EWMO - Energy Weighted Maximum Overlap - is a Huckel type method,
        which normally is better than Extended Huckel Theory.
 Reference: Linderberg and Ohrn, Propagators in Quantum Chemistry (Wiley, 1973)

 Huckel EWMO eigenvalues for symmetry :  1
          -15.674841     -15.673676     -15.673366     -11.366991     -11.363424
          -11.362732     -11.358904     -11.356288     -11.355252     -11.354774
          -11.353772     -11.352373     -11.351089     -11.348993     -11.347859
          -11.347607     -11.347171     -11.345347     -11.344608     -11.344389
          -11.344035      -2.084305      -1.934286      -1.859530      -1.684425
           -1.605581      -1.511889      -1.462078      -1.419552      -1.382787
           -1.254390      -1.180833      -1.126450      -1.060067      -1.014477
           -0.977150      -0.942970      -0.896171      -0.848431      -0.825027
           -0.782842      -0.754702      -0.730199      -0.721204      -0.699898
           -0.672472      -0.648151      -0.628061      -0.619030      -0.600080
           -0.589515      -0.586100      -0.563088      -0.559585      -0.541881
           -0.530108      -0.525961      -0.516387      -0.482285      -0.475057
           -0.469831      -0.454968      -0.444877      -0.443314      -0.430924
           -0.420112      -0.402295      -0.397484      -0.385180      -0.367575
           -0.347393      -0.295934      -0.287219      -0.263797      -0.253170
           -0.249033      -0.245440      -0.233437      -0.227840      -0.192025
           -0.189239      -0.183902      -0.177132      -0.170970      -0.145457
           -0.143733      -0.141330      -0.137381      -0.132091      -0.128910
           -0.125821      -0.124981      -0.124498      -0.123389      -0.120751
           -0.120438      -0.120011      -0.119043      -0.116551      -0.114979
           -0.109375      -0.103814      -0.101843      -0.100453      -0.097329
           -0.096972      -0.095010      -0.093427      -0.091227      -0.088917
           -0.086492      -0.084881      -0.081573      -0.079229      -0.078550
           -0.075864      -0.074400      -0.073894

 **********************************************************************
 *SIRIUS* a direct, restricted step, second order MCSCF program       *
 **********************************************************************

 
     Date and time (Linux)  : Tue Sep 10 08:42:39 2019
     Host name              : node358.cluster                         

 Title lines from ".mol" input file:
     VHF_trans.xyz                                                           
     Hej Bendte                                                              

 Print level on unit LUPRI =   2 is   0
 Print level on unit LUW4  =   2 is   5

@    Restricted, closed shell Kohn-Sham DFT calculation.

@    Time-dependent Kohn-Sham DFT calculation (TD-DFT).
 Fock matrices are calculated directly and in parallel without use of integrals on disk.

 Initial molecular orbitals are obtained according to
 ".MOSTART EWMO  " input option

     Wave function specification
     ============================
@    Wave function type        --- KS-DFT ---
@    Number of closed shell electrons         142
@    Number of electrons in active shells       0
@    Total charge of the molecule               0

@    Spin multiplicity and 2 M_S                1         0
@    Total number of symmetries                 1 (point group: C1 )
@    Reference state symmetry                   1 (irrep name : A  )
 
     This is a DFT calculation of type: Camb3lyp
 CAM-B3LYP w/ alpha=0.190 beta=0.460 mu=0.330 VwnWeight=0.190 LypWeight=0.810

     Orbital specifications
     ======================
@    Abelian symmetry species          All |    1
@                                          |  A  
                                       --- |  ---
@    Occupied SCF orbitals              71 |   71
@    Secondary orbitals                527 |  527
@    Total number of orbitals          598 |  598
@    Number of basis functions         600 |  600

     Optimization information
     ========================
@    Number of configurations                 1
@    Number of orbital rotations          37417
     ------------------------------------------
@    Total number of variables            37418

     Maximum number of Fock   iterations      0
     Maximum number of DIIS   iterations     60
     Maximum number of QC-SCF iterations     60
     Threshold for SCF convergence     1.00D-05
 
     This is a DFT calculation of type: Camb3lyp
 CAM-B3LYP w/ alpha=0.190 beta=0.460 mu=0.330 VwnWeight=0.190 LypWeight=0.810

    INFORMATION: Switched to "new" integral transformation (from 1988 ;-) )
    because more than 255 basis functions.


 ***********************************************
 ***** DIIS acceleration of SCF iterations *****
 ***********************************************

 C1-DIIS algorithm; max error vectors =    8

 Iter      Total energy        Error norm    Delta(E)  DIIS dim.
 -----------------------------------------------------------------------------
   1  Screening settings (-IFTHRS, JTDIIS, DIFDEN, times)   -9    1    F  1.08D+03  1.08D+03
      K-S energy, electrons, error :    -87.148275304615 141.9998773078   -1.23D-04
@  1    -854.304637746        6.93562D+00   -8.54D+02    1
      Virial theorem: -V/T =      2.016892
@      MULPOP N      -1.35; N      -1.38; N      -0.46; C      -0.00; C       0.37; C       0.28; C       0.17; C       0.16; C       0.29; C       0.05; 
@             C      -1.00; C       1.01; C       0.57; C       1.36; C       1.40; C      -0.14; C       0.20; C       0.31; C       0.24; C       0.15; 
@             C       0.20; H      -0.30; H      -0.21; H      -0.26; H      -0.24; H      -0.22; H      -0.23; H      -0.25; H      -0.23; H      -0.27; 
   1  Level shift: doubly occupied orbital energies shifted by -2.00D-01
 -----------------------------------------------------------------------------
   2  Screening settings (-IFTHRS, JTDIIS, DIFDEN, times)   -9    2    F  1.11D+03  1.11D+03
      K-S energy, electrons, error :    -89.869577125174 141.9999342197   -6.58D-05
@  2    -855.693460198        5.57265D+00   -1.39D+00    2
      Virial theorem: -V/T =      1.997539
@      MULPOP N       1.34; N       1.43; N       0.25; C       2.36; C       0.55; C       0.03; C       0.42; C       0.34; C       0.09; C       1.12; 
@             C       0.98; C       2.03; C       0.03; C      -2.58; C      -2.71; C       0.69; C       1.17; C       1.21; C       0.06; C      -0.21; 
@             C       0.87; H      -1.08; H      -0.76; H      -0.94; H      -0.80; H      -0.73; H      -0.76; H      -0.83; H      -1.11; H      -1.05; 
   2  Level shift: doubly occupied orbital energies shifted by -2.00D-01
 -----------------------------------------------------------------------------
   3  Screening settings (-IFTHRS, JTDIIS, DIFDEN, times)   -9    3    F  1.11D+03  1.11D+03
      K-S energy, electrons, error :    -89.744602395184 141.9999379008   -6.21D-05
@  3    -857.344971478        1.68581D+00   -1.65D+00    3
      Virial theorem: -V/T =      2.001112
@      MULPOP N      -0.43; N      -0.43; N      -0.01; C       2.27; C       0.62; C       0.13; C       0.46; C       0.46; C      -0.01; C       1.38; 
@             C       1.41; C       1.75; C       0.15; C      -0.82; C      -0.90; C       1.00; C       1.17; C       1.19; C       0.07; C      -0.18; 
@             C       0.91; H      -1.15; H      -0.82; H      -1.03; H      -0.86; H      -0.78; H      -0.81; H      -0.91; H      -1.16; H      -1.13; 
   3  Level shift: doubly occupied orbital energies shifted by -1.00D-01
 -----------------------------------------------------------------------------
   4  Screening settings (-IFTHRS, JTDIIS, DIFDEN, times)  -10    4    F  1.12D+03  1.12D+03
      K-S energy, electrons, error :    -89.189704379080 141.9999346204   -6.54D-05
@  4    -857.490669879        4.41596D-01   -1.46D-01    4
      Virial theorem: -V/T =      2.006472
@      MULPOP N      -0.17; N      -0.15; N      -0.03; C       2.18; C       0.68; C       0.29; C       0.58; C       0.57; C       0.18; C       1.29; 
@             C       1.36; C       1.78; C       0.15; C      -1.16; C      -1.29; C       0.93; C       1.17; C       1.16; C       0.24; C       0.01; 
@             C       1.02; H      -1.18; H      -0.87; H      -1.09; H      -0.91; H      -0.84; H      -0.87; H      -0.96; H      -1.20; H      -1.16; 
   4  Level shift: doubly occupied orbital energies shifted by -5.00D-02
 -----------------------------------------------------------------------------
   5  Screening settings (-IFTHRS, JTDIIS, DIFDEN, times)  -10    5    F  1.12D+03  1.12D+03
      K-S energy, electrons, error :    -89.282025051666 141.9999356099   -6.44D-05
@  5    -857.503554837        1.64486D-01   -1.29D-02    5
      Virial theorem: -V/T =      2.005627
@      MULPOP N      -0.16; N      -0.16; N       0.00; C       2.17; C       0.65; C       0.26; C       0.57; C       0.55; C       0.15; C       1.35; 
@             C       1.49; C       1.64; C       0.14; C      -1.15; C      -1.26; C       0.98; C       1.20; C       1.14; C       0.20; C      -0.04; 
@             C       1.00; H      -1.17; H      -0.86; H      -1.09; H      -0.91; H      -0.83; H      -0.86; H      -0.95; H      -1.19; H      -1.16; 
   5  Level shift: doubly occupied orbital energies shifted by -2.50D-02
 -----------------------------------------------------------------------------
   6  Screening settings (-IFTHRS, JTDIIS, DIFDEN, times)  -11    6    F  1.12D+03  1.12D+03
      K-S energy, electrons, error :    -89.299841474133 141.9999357202   -6.43D-05
@  6    -857.505341733        6.89364D-02   -1.79D-03    6
      Virial theorem: -V/T =      2.005458
@      MULPOP N      -0.15; N      -0.14; N      -0.03; C       2.24; C       0.66; C       0.25; C       0.56; C       0.56; C       0.14; C       1.35; 
@             C       1.44; C       1.71; C       0.11; C      -1.19; C      -1.30; C       1.02; C       1.18; C       1.15; C       0.20; C      -0.04; 
@             C       1.00; H      -1.17; H      -0.86; H      -1.09; H      -0.91; H      -0.83; H      -0.86; H      -0.95; H      -1.19; H      -1.16; 
   6  Level shift: doubly occupied orbital energies shifted by -1.25D-02
 -----------------------------------------------------------------------------
   7  Screening settings (-IFTHRS, JTDIIS, DIFDEN, times)  -11    7    F  1.12D+03  1.12D+03
      K-S energy, electrons, error :    -89.295012280036 141.9999358040   -6.42D-05
@  7    -857.505680800        2.32125D-02   -3.39D-04    7
      Virial theorem: -V/T =      2.005506
@      MULPOP N      -0.15; N      -0.14; N      -0.02; C       2.21; C       0.65; C       0.27; C       0.56; C       0.56; C       0.16; C       1.34; 
@             C       1.46; C       1.67; C       0.13; C      -1.18; C      -1.29; C       1.02; C       1.18; C       1.13; C       0.21; C      -0.03; 
@             C       1.00; H      -1.17; H      -0.86; H      -1.09; H      -0.91; H      -0.84; H      -0.86; H      -0.95; H      -1.19; H      -1.15; 
 -----------------------------------------------------------------------------
   8  Screening settings (-IFTHRS, JTDIIS, DIFDEN, times)  -12    8    F  1.12D+03  1.12D+03
      K-S energy, electrons, error :    -89.294405836557 141.9999358118   -6.42D-05
@  8    -857.505732157        1.10600D-02   -5.14D-05    8
      Virial theorem: -V/T =      2.005514
@      MULPOP N      -0.15; N      -0.14; N      -0.03; C       2.20; C       0.66; C       0.26; C       0.56; C       0.56; C       0.15; C       1.35; 
@             C       1.46; C       1.67; C       0.14; C      -1.18; C      -1.28; C       1.03; C       1.18; C       1.13; C       0.20; C      -0.03; 
@             C       1.00; H      -1.17; H      -0.86; H      -1.09; H      -0.91; H      -0.83; H      -0.86; H      -0.95; H      -1.19; H      -1.15; 
 -----------------------------------------------------------------------------
   9  Screening settings (-IFTHRS, JTDIIS, DIFDEN, times)  -12    9    F  1.12D+03  1.12D+03
      K-S energy, electrons, error :    -89.295164776455 141.9999358002   -6.42D-05
@  9    -857.505744230        3.53950D-03   -1.21D-05    8
      Virial theorem: -V/T =      2.005507
@      MULPOP N      -0.15; N      -0.14; N      -0.03; C       2.21; C       0.65; C       0.26; C       0.56; C       0.56; C       0.15; C       1.34; 
@             C       1.46; C       1.67; C       0.14; C      -1.18; C      -1.28; C       1.03; C       1.17; C       1.13; C       0.20; C      -0.03; 
@             C       1.00; H      -1.17; H      -0.86; H      -1.09; H      -0.91; H      -0.83; H      -0.86; H      -0.95; H      -1.19; H      -1.15; 
 -----------------------------------------------------------------------------
  10  Screening settings (-IFTHRS, JTDIIS, DIFDEN, times)  -13   10    F  1.12D+03  1.12D+03
      K-S energy, electrons, error :    -89.295086645043 141.9999357963   -6.42D-05
@ 10    -857.505746781        2.00127D-03   -2.55D-06    8
      Virial theorem: -V/T =      2.005508
@      MULPOP N      -0.15; N      -0.14; N      -0.03; C       2.20; C       0.65; C       0.26; C       0.56; C       0.56; C       0.15; C       1.34; 
@             C       1.46; C       1.67; C       0.14; C      -1.18; C      -1.29; C       1.03; C       1.17; C       1.13; C       0.21; C      -0.03; 
@             C       1.00; H      -1.17; H      -0.86; H      -1.09; H      -0.91; H      -0.83; H      -0.86; H      -0.95; H      -1.19; H      -1.15; 
 -----------------------------------------------------------------------------
  11  Screening settings (-IFTHRS, JTDIIS, DIFDEN, times)  -13   11    F  1.13D+03  1.13D+03
      K-S energy, electrons, error :    -89.295141864894 141.9999358030   -6.42D-05
@ 11    -857.505747301        9.10429D-04   -5.20D-07    8
      Virial theorem: -V/T =      2.005507
@      MULPOP N      -0.15; N      -0.14; N      -0.03; C       2.20; C       0.65; C       0.26; C       0.56; C       0.56; C       0.15; C       1.34; 
@             C       1.46; C       1.67; C       0.14; C      -1.18; C      -1.29; C       1.03; C       1.17; C       1.13; C       0.21; C      -0.03; 
@             C       1.00; H      -1.17; H      -0.86; H      -1.09; H      -0.91; H      -0.83; H      -0.86; H      -0.95; H      -1.19; H      -1.15; 
 -----------------------------------------------------------------------------
  12  Screening settings (-IFTHRS, JTDIIS, DIFDEN, times)  -13   12    F  1.13D+03  1.13D+03
      K-S energy, electrons, error :    -89.295123473921 141.9999358021   -6.42D-05
@ 12    -857.505747470        4.13749D-04   -1.69D-07    8
      Virial theorem: -V/T =      2.005507
@      MULPOP N      -0.15; N      -0.14; N      -0.03; C       2.20; C       0.65; C       0.26; C       0.56; C       0.56; C       0.15; C       1.34; 
@             C       1.46; C       1.67; C       0.14; C      -1.18; C      -1.29; C       1.03; C       1.17; C       1.13; C       0.21; C      -0.03; 
@             C       1.00; H      -1.17; H      -0.86; H      -1.09; H      -0.91; H      -0.83; H      -0.86; H      -0.95; H      -1.19; H      -1.15; 
 -----------------------------------------------------------------------------
  13  Screening settings (-IFTHRS, JTDIIS, DIFDEN, times)  -13   13    F  1.13D+03  1.13D+03
      K-S energy, electrons, error :    -89.295069126933 141.9999358005   -6.42D-05
@ 13    -857.505747494        1.47828D-04   -2.44D-08    8
      Virial theorem: -V/T =      2.005508
@      MULPOP N      -0.15; N      -0.14; N      -0.03; C       2.20; C       0.65; C       0.26; C       0.56; C       0.56; C       0.15; C       1.34; 
@             C       1.46; C       1.67; C       0.14; C      -1.18; C      -1.29; C       1.03; C       1.17; C       1.13; C       0.21; C      -0.03; 
@             C       1.00; H      -1.17; H      -0.86; H      -1.09; H      -0.91; H      -0.83; H      -0.86; H      -0.95; H      -1.19; H      -1.15; 
 -----------------------------------------------------------------------------
  14  Screening settings (-IFTHRS, JTDIIS, DIFDEN, times)  -13   14    F  1.13D+03  1.13D+03
      K-S energy, electrons, error :    -89.295108696265 141.9999358004   -6.42D-05
@ 14    -857.505747496        8.42443D-05   -2.15D-09    8
      Virial theorem: -V/T =      2.005507
@      MULPOP N      -0.15; N      -0.14; N      -0.03; C       2.21; C       0.65; C       0.26; C       0.56; C       0.56; C       0.15; C       1.34; 
@             C       1.46; C       1.67; C       0.14; C      -1.18; C      -1.29; C       1.03; C       1.17; C       1.13; C       0.21; C      -0.03; 
@             C       1.00; H      -1.17; H      -0.86; H      -1.09; H      -0.91; H      -0.83; H      -0.86; H      -0.95; H      -1.19; H      -1.15; 
 -----------------------------------------------------------------------------
  15  Screening settings (-IFTHRS, JTDIIS, DIFDEN, times)  -13   15    F  1.13D+03  1.13D+03
      K-S energy, electrons, error :    -89.295111113448 141.9999358002   -6.42D-05
@ 15    -857.505747497        3.80804D-05   -7.92D-10    8
      Virial theorem: -V/T =      2.005507
@      MULPOP N      -0.15; N      -0.14; N      -0.03; C       2.21; C       0.65; C       0.26; C       0.56; C       0.56; C       0.15; C       1.34; 
@             C       1.46; C       1.67; C       0.14; C      -1.18; C      -1.29; C       1.03; C       1.17; C       1.13; C       0.21; C      -0.03; 
@             C       1.00; H      -1.17; H      -0.86; H      -1.09; H      -0.91; H      -0.83; H      -0.86; H      -0.95; H      -1.19; H      -1.15; 
 -----------------------------------------------------------------------------
  16  Screening settings (-IFTHRS, JTDIIS, DIFDEN, times)  -13   16    F  1.13D+03  1.13D+03
      K-S energy, electrons, error :    -89.295104736371 141.9999357999   -6.42D-05
@ 16    -857.505747497        1.52754D-05   -1.41D-10    8
      Virial theorem: -V/T =      2.005507
@      MULPOP N      -0.15; N      -0.14; N      -0.03; C       2.21; C       0.65; C       0.26; C       0.56; C       0.56; C       0.15; C       1.34; 
@             C       1.46; C       1.67; C       0.14; C      -1.18; C      -1.29; C       1.03; C       1.17; C       1.13; C       0.21; C      -0.03; 
@             C       1.00; H      -1.17; H      -0.86; H      -1.09; H      -0.91; H      -0.83; H      -0.86; H      -0.95; H      -1.19; H      -1.15; 
 -----------------------------------------------------------------------------
  17  Screening settings (-IFTHRS, JTDIIS, DIFDEN, times)  -13   17    F  1.13D+03  1.13D+03
      K-S energy, electrons, error :    -89.295104996792 141.9999357998   -6.42D-05
@ 17    -857.505747497        6.86719D-06   -2.00D-11    8

@ *** DIIS converged in  17 iterations !
@     Converged SCF energy, gradient:   -857.505747497326    6.87D-06
    - total time used in SIRFCK :              0.00 seconds


 *** SCF orbital energy analysis ***

 Only the 20 lowest virtual orbital energies printed in each symmetry.

 Number of electrons :  142
 Orbital occupations :   71

 Sym       Kohn-Sham orbital energies

1 A     -14.42306592   -14.41984078   -14.41623006   -10.33978377   -10.33494093
        -10.31875007   -10.31678869   -10.31324322   -10.30451890   -10.29876150
        -10.29424209   -10.29262833   -10.29206102   -10.29118096   -10.29070648
        -10.29020737   -10.28672049   -10.28668845   -10.28657689   -10.28377342
        -10.28333082    -1.03335119    -1.00977738    -1.00077178    -0.97592460
         -0.95172793    -0.93254653    -0.89389816    -0.88195282    -0.86203031
         -0.85447805    -0.81457540    -0.77287450    -0.74919168    -0.71871067
         -0.70502821    -0.67781217    -0.66706244    -0.63344920    -0.62081011
         -0.61462852    -0.61110829    -0.58312840    -0.57334527    -0.54804482
         -0.54539079    -0.53475725    -0.52534982    -0.51564567    -0.51319290
         -0.49643607    -0.48618404    -0.47240761    -0.46441047    -0.46177431
         -0.45142540    -0.44890939    -0.44350011    -0.43987778    -0.43145551
         -0.42450478    -0.42153896    -0.41714142    -0.40988883    -0.40015161
         -0.36878261    -0.36776724    -0.35434837    -0.33231078    -0.31445705
         -0.24533973    -0.07377961    -0.04622607    -0.00585233    -0.00055443
          0.00774318     0.01034491     0.01222772     0.02057073     0.02437361
          0.03189469     0.03472644     0.03627843     0.04362397     0.04552959
          0.04972810     0.05285857     0.05618186     0.05998336     0.06265620
          0.07010037

    E(LUMO) :    -0.07377961 au (symmetry 1)
  - E(HOMO) :    -0.24533973 au (symmetry 1)
  ------------------------------------------
    gap     :     0.17156012 au

 --- Writing SIRIFC interface file

 CPU and wall time for SCF :   19442.718   19454.168


                       .-----------------------------------.
                       | --- Final results from SIRIUS --- |
                       `-----------------------------------'


@    Spin multiplicity:           1
@    Spatial symmetry:            1 ( irrep  A   in C1  )
@    Total charge of molecule:    0

@    Final DFT energy:           -857.505747497326                 
@    Nuclear repulsion:          1474.303175433221
@    Electronic energy:         -2331.808922930547

@    Final gradient norm:           0.000006867195

 
     Date and time (Linux)  : Tue Sep 10 14:06:54 2019
     Host name              : node358.cluster                         

File label for MO orbitals:  10Sep19   FOCKDIIS

 (Only coefficients > 0.0100 are printed.)

 Molecular orbitals for symmetry species 1  (A  )
 ------------------------------------------------

    Orbital        62       63       64       65       66       67       68
   2 N   :1s    -0.0284  -0.0227  -0.0337   0.0164   0.0006  -0.0046   0.0109
   3 N   :1s    -0.0221  -0.0123  -0.0348   0.0454   0.0004   0.0191  -0.0128
   4 N   :1s    -0.0781  -0.0450  -0.1231   0.1032   0.0115   0.0566  -0.0337
   5 N   :2px    0.3302   0.2562  -0.2163   0.2430  -0.0100  -0.0277  -0.1261
   6 N   :2py   -0.0731   0.0578   0.1456  -0.1222  -0.0012   0.0375   0.0343
   7 N   :2pz    0.3397  -0.2287   0.0237  -0.0482   0.0204  -0.2807   0.0500
   8 N   :2px   -0.0424  -0.0314   0.0209  -0.0256   0.0012   0.0041   0.0135
   9 N   :2py   -0.0042  -0.0204  -0.0365   0.0298   0.0004   0.0031  -0.0087
  10 N   :2pz   -0.0412   0.0238  -0.0068   0.0093  -0.0025   0.0352  -0.0056
  11 N   :2px    0.0084   0.0067  -0.0087   0.0107  -0.0039   0.0014  -0.0091
  12 N   :2py   -0.0206  -0.0064  -0.0279   0.0172   0.0044   0.0188  -0.0062
  13 N   :2pz    0.0065  -0.0158  -0.0033   0.0089   0.0001  -0.0158  -0.0005
  14 N   :3d2-   0.0134   0.0115  -0.0091   0.0100  -0.0004  -0.0004  -0.0047
  15 N   :3d1-   0.0146  -0.0100   0.0019  -0.0031   0.0008  -0.0098   0.0027
  25 N   :1s    -0.0369  -0.0242   0.0161  -0.0087   0.0011  -0.0018   0.0019
  26 N   :1s    -0.0272  -0.0163   0.0209  -0.0177   0.0007   0.0029   0.0028
  27 N   :1s    -0.0782  -0.0872   0.0575  -0.0508   0.0146  -0.0003   0.0191
  28 N   :2px   -0.1094   0.0056   0.1395  -0.0524   0.0003  -0.0392   0.0012
  29 N   :2py   -0.1175  -0.1950  -0.4886   0.1901   0.0080  -0.0002   0.0325
  30 N   :2pz   -0.4124   0.1805  -0.0356   0.1533   0.0031  -0.2646  -0.0661
  31 N   :2px    0.0256   0.0121  -0.0253   0.0150  -0.0007   0.0113  -0.0032
  32 N   :2py    0.0185   0.0232   0.0517  -0.0195  -0.0009   0.0022  -0.0042
  33 N   :2pz    0.0466  -0.0233   0.0043  -0.0190  -0.0003   0.0316   0.0099
  34 N   :2px    0.0143   0.0181  -0.0109   0.0116  -0.0030  -0.0014  -0.0060
  35 N   :2py   -0.0009   0.0088  -0.0178   0.0036  -0.0011   0.0056   0.0022
  36 N   :2pz   -0.0152   0.0031  -0.0001   0.0060   0.0018  -0.0158   0.0004
  37 N   :3d2-   0.0056   0.0082   0.0214  -0.0084  -0.0003   0.0007  -0.0010
  40 N   :3d1+   0.0192  -0.0084   0.0024  -0.0068  -0.0001   0.0096   0.0022
  41 N   :3d2+   0.0030  -0.0030  -0.0104   0.0036   0.0001   0.0012   0.0003
  48 N   :1s    -0.0096   0.0009  -0.0280  -0.0392   0.0204  -0.1018   0.1032
  49 N   :1s     0.0057   0.0065  -0.0099   0.0123  -0.0057  -0.0269   0.0242
  50 N   :1s    -0.0455  -0.1053  -0.0619   0.0106   0.0992  -0.0960   0.1949
  51 N   :2px   -0.0049   0.0322   0.1002   0.2158  -0.0481   0.1090  -0.3009
  52 N   :2py   -0.0127  -0.0753   0.0247   0.0033   0.0028  -0.1488   0.1354
  53 N   :2pz   -0.0159   0.0090  -0.0574  -0.1616   0.0281  -0.1749   0.4429
  54 N   :2px    0.0119   0.0018  -0.0182  -0.0299   0.0070  -0.0074   0.0137
  55 N   :2py    0.0053   0.0224  -0.0089  -0.0081   0.0001   0.0211  -0.0134
  56 N   :2pz   -0.0043  -0.0130  -0.0086  -0.0138   0.0070  -0.0000   0.0046
  57 N   :2px   -0.0002  -0.0043  -0.0005   0.0221  -0.0002   0.0274  -0.0363
  58 N   :2py   -0.0065  -0.0167  -0.0067  -0.0049   0.0113  -0.0213   0.0308
  59 N   :2pz   -0.0004  -0.0036   0.0062  -0.0290  -0.0143  -0.0219   0.0538
  71 C   :1s     0.0027   0.0077  -0.0008  -0.0126  -0.0044   0.0307  -0.0265
  72 C   :1s     0.0579   0.1084   0.1338  -0.0473   0.0372  -0.2068   0.0747
  73 C   :1s    -0.2882  -0.4432   0.1937   0.2091  -0.0476   0.0620  -0.1018
  74 C   :2px    0.0301  -0.0643   0.1008   0.0165  -0.0127   0.0706  -0.1240
  75 C   :2py   -0.0274  -0.1605  -0.0129  -0.1534  -0.0065  -0.0570  -0.1848
  76 C   :2pz    0.0094   0.1322  -0.1289  -0.2370   0.0143   0.0129  -0.2049
  77 C   :2px   -0.0912  -0.1878  -0.0059   0.0180  -0.0519  -0.1892   0.0562
  78 C   :2py    0.0819   0.1698   0.0292   0.0756  -0.0372   0.0665  -0.1346
  79 C   :2pz   -0.0563  -0.1337  -0.0305  -0.0255   0.0497  -0.0124   0.1755
  80 C   :2px   -0.0117   0.1351  -0.1104  -0.2402  -0.0427  -0.1591   0.1472
  81 C   :2py    0.0638   0.3437  -0.1450  -0.1163   0.0441   0.1139  -0.1015
  82 C   :2pz   -0.0921  -0.4533   0.1832   0.1475  -0.1094  -0.1114   0.0767
  85 C   :3d0   -0.0010  -0.0062   0.0022   0.0011   0.0156   0.0007   0.0003
  87 C   :3d2+  -0.0002   0.0065  -0.0069  -0.0091   0.0106   0.0001   0.0068
  88 C   :3d2-   0.0288  -0.0136  -0.0093   0.0161   0.0069   0.0389   0.0139
  89 C   :3d1-  -0.0256  -0.1316  -0.0345   0.0020   0.0082  -0.0457   0.0751
  90 C   :3d0    0.0352   0.1086   0.0335   0.0073   0.0143   0.0505  -0.0649
  91 C   :3d1+  -0.0182   0.0602   0.0091  -0.0213  -0.0244  -0.0213  -0.0298
  92 C   :3d2+  -0.0322  -0.1921  -0.0535   0.0118   0.0165  -0.0417   0.1067
  94 C   :1s     0.0030   0.0425  -0.0092   0.0232   0.0100   0.0193  -0.0123
  95 C   :1s     0.0176   0.2091   0.0028  -0.0771  -0.0098  -0.0460  -0.0561
  96 C   :1s     0.1445   0.7542  -0.4972  -0.5646   0.1023  -0.1458   0.1732
  97 C   :2px   -0.0249   0.0132  -0.0393   0.0117   0.0245  -0.0104  -0.0166
  98 C   :2py    0.0133   0.1251  -0.0792  -0.1181   0.3442  -0.0415  -0.1415
  99 C   :2pz   -0.0025  -0.1757   0.1469   0.1177   0.1932   0.0144  -0.2301
 100 C   :2px   -0.0343   0.0464  -0.0320  -0.0309  -0.0782  -0.0595  -0.0779
 101 C   :2py    0.0054   0.0051   0.0674   0.0525  -0.0438   0.0259  -0.0479
 102 C   :2pz   -0.0010   0.0054  -0.0880  -0.0604   0.0029  -0.0193   0.1060
 103 C   :2px    0.0270  -0.0478   0.0905   0.1021  -0.0308   0.0005  -0.0713
 104 C   :2py    0.0117   0.0450  -0.0341  -0.0538   0.0266  -0.0425   0.0275
 105 C   :2pz   -0.0210  -0.0458   0.0400   0.0526   0.0243   0.0436  -0.0486
 106 C   :3d2-  -0.0015   0.0014  -0.0072  -0.0110  -0.0131  -0.0008  -0.0051
 111 C   :3d2-  -0.0046  -0.0008   0.0210   0.0173  -0.0294   0.0008  -0.0385
 112 C   :3d1-  -0.0066  -0.0565   0.0176   0.0280  -0.0012  -0.0020   0.0036
 113 C   :3d0    0.0095   0.0777  -0.0183  -0.0317   0.0046   0.0020  -0.0052
 114 C   :3d1+   0.0075   0.0366  -0.0412  -0.0517   0.0220  -0.0106   0.0490
 115 C   :3d2+  -0.0138  -0.0952   0.0252   0.0397  -0.0073  -0.0080   0.0052
 117 C   :1s     0.0025  -0.0138   0.0068  -0.0138   0.0019  -0.0028   0.0012
 118 C   :1s    -0.0089   0.0269   0.0268   0.0131  -0.0281  -0.0039  -0.0565
 119 C   :1s    -0.0374  -0.4882   0.4270   0.4089  -0.0629   0.0965  -0.1483
 120 C   :2px    0.0299   0.0536   0.0088  -0.0239   0.0499   0.0131   0.0050
 121 C   :2py    0.0147  -0.0599   0.1304   0.1762   0.3717   0.0050  -0.0511
 122 C   :2pz    0.0103   0.1549  -0.0685  -0.0204   0.2573  -0.0121   0.0120
 123 C   :2px   -0.0282   0.0288  -0.0447  -0.0132  -0.0515  -0.0284  -0.0412
 124 C   :2py   -0.0042  -0.0080  -0.0210  -0.0223  -0.0227  -0.0046   0.0285
 125 C   :2pz    0.0059   0.0073   0.0183  -0.0006  -0.0421   0.0011  -0.0309
 126 C   :2px   -0.0062  -0.0068   0.0337   0.0108  -0.0299  -0.0142  -0.0178
 127 C   :2py   -0.0078  -0.0143   0.0036   0.0103   0.0243   0.0188  -0.0046
 128 C   :2pz    0.0157   0.0229  -0.0086  -0.0064  -0.0031  -0.0181  -0.0010
 131 C   :3d0   -0.0015  -0.0068  -0.0003  -0.0048  -0.0020  -0.0015  -0.0101
 132 C   :3d1+   0.0008  -0.0078   0.0079   0.0049   0.0063   0.0015  -0.0113
 134 C   :3d2-   0.0016  -0.0317   0.0259   0.0222  -0.0055   0.0028  -0.0120
 135 C   :3d1-  -0.0063  -0.0177   0.0070   0.0128  -0.0122  -0.0005  -0.0149
 136 C   :3d0    0.0068   0.0143  -0.0021  -0.0158   0.0110   0.0001   0.0055
 137 C   :3d1+  -0.0008   0.0593  -0.0463  -0.0483   0.0123  -0.0103   0.0168
 138 C   :3d2+  -0.0094  -0.0223   0.0050   0.0151  -0.0125  -0.0028  -0.0160
 140 C   :1s    -0.0034  -0.0458   0.0287   0.0266   0.0025   0.0038  -0.0194
 141 C   :1s    -0.0454  -0.1427   0.0535   0.0725  -0.0300  -0.0232  -0.0169
 142 C   :1s    -0.0150  -0.0640  -0.0660  -0.0378  -0.0006  -0.0189   0.0620
 143 C   :2px   -0.0302  -0.1720   0.0666   0.0550  -0.0279  -0.0113  -0.0360
 144 C   :2py    0.0201   0.1073   0.0351   0.1695   0.1302   0.0233   0.2561
 145 C   :2pz    0.0254  -0.0286   0.1453   0.2412   0.0912   0.0446   0.1488
 146 C   :2px    0.0072   0.0719  -0.0268  -0.0201   0.0038   0.0096   0.0013
 147 C   :2py   -0.0050  -0.0124  -0.0048  -0.0219   0.0120  -0.0060   0.0045
 148 C   :2pz    0.0004  -0.0019  -0.0081  -0.0153  -0.0456   0.0002  -0.0576
 149 C   :2px    0.0061   0.0293  -0.0274  -0.0159   0.0073  -0.0029   0.0022
 150 C   :2py   -0.0078  -0.0788   0.0349   0.0441   0.0135   0.0173   0.0206
 151 C   :2pz    0.0110   0.1086  -0.0426  -0.0486  -0.0152  -0.0248  -0.0010
 154 C   :3d0   -0.0017  -0.0066   0.0006  -0.0021   0.0132  -0.0023  -0.0098
 156 C   :3d2+   0.0011   0.0062  -0.0033  -0.0052   0.0110   0.0001  -0.0052
 157 C   :3d2-  -0.0004  -0.0114   0.0120   0.0102   0.0048   0.0022   0.0010
 158 C   :3d1-  -0.0054  -0.0184   0.0045   0.0063  -0.0007   0.0003  -0.0028
 159 C   :3d0    0.0044   0.0223  -0.0085  -0.0126   0.0092  -0.0030   0.0002
 161 C   :3d2+  -0.0053  -0.0196   0.0044   0.0032  -0.0018   0.0018  -0.0036
 163 C   :1s     0.0019   0.0448  -0.0297  -0.0244  -0.0101   0.0159   0.0053
 164 C   :1s    -0.0160   0.0234  -0.0674  -0.0391   0.0095   0.0194   0.0273
 165 C   :1s    -0.0335   0.0175  -0.0109  -0.0618  -0.0145  -0.0546   0.0578
 166 C   :2px    0.0251   0.1836  -0.0883  -0.0801   0.0219   0.0422  -0.0028
 167 C   :2py    0.0364   0.0408   0.1226   0.2434  -0.1166   0.0469   0.2402
 168 C   :2pz    0.0111   0.0862   0.0133   0.1215  -0.0951   0.0233   0.2108
 169 C   :2px   -0.0297  -0.1003   0.0268   0.0357   0.0275  -0.0261   0.0470
 170 C   :2py   -0.0065   0.0179  -0.0366  -0.0475   0.0263   0.0063  -0.0003
 171 C   :2pz    0.0028  -0.0372   0.0224   0.0058  -0.0051  -0.0151  -0.0391
 172 C   :2px   -0.0260  -0.1382   0.0446   0.0384   0.0106   0.0137   0.0380
 173 C   :2py   -0.0112  -0.0436   0.0043   0.0214   0.0092   0.0136   0.0297
 174 C   :2pz    0.0157   0.0533   0.0030  -0.0034  -0.0065  -0.0058  -0.0041
 175 C   :3d2-   0.0001   0.0032  -0.0032  -0.0040  -0.0113  -0.0004  -0.0021
 178 C   :3d1+   0.0003  -0.0030   0.0032   0.0024  -0.0129  -0.0003  -0.0037
 180 C   :3d2-   0.0043  -0.0116   0.0114   0.0096  -0.0092   0.0106  -0.0118
 181 C   :3d1-  -0.0075  -0.0196   0.0042   0.0059  -0.0002  -0.0040   0.0067
 182 C   :3d0    0.0079   0.0275  -0.0110  -0.0121   0.0023   0.0051   0.0026
 183 C   :3d1+  -0.0048   0.0080  -0.0118  -0.0099   0.0011  -0.0136   0.0067
 184 C   :3d2+  -0.0104  -0.0276   0.0088   0.0107   0.0041  -0.0066   0.0103
 186 C   :1s     0.0041   0.0195  -0.0044  -0.0053  -0.0009  -0.0117  -0.0114
 187 C   :1s    -0.0170  -0.1751  -0.0481  -0.0008   0.0212  -0.0061   0.0942
 188 C   :1s     0.1745   0.7046  -0.2611  -0.1430   0.1517   0.1791  -0.0863
 189 C   :2px   -0.0211  -0.1688   0.0840   0.0676  -0.0022  -0.0400  -0.0259
 190 C   :2py   -0.0002  -0.0333   0.0443   0.0787  -0.3316  -0.0076   0.0311
 191 C   :2pz    0.0355   0.1093   0.0263   0.0677  -0.3089   0.0164   0.0122
 192 C   :2px   -0.0444  -0.1613   0.0087   0.0357   0.0370  -0.0502   0.0929
 193 C   :2py    0.0221   0.1070   0.0207   0.0009   0.0301  -0.0185  -0.0425
 194 C   :2pz   -0.0304  -0.1334  -0.0226  -0.0086   0.0333   0.0184   0.0262
 195 C   :2px   -0.0246  -0.0270  -0.0254  -0.0159   0.0192   0.0062   0.0593
 196 C   :2py   -0.0002  -0.0292   0.0160  -0.0014  -0.0455  -0.0205  -0.0047
 197 C   :2pz   -0.0063   0.0099  -0.0134  -0.0048  -0.0059   0.0092  -0.0045
 198 C   :3d2-  -0.0008   0.0015  -0.0059  -0.0106  -0.0040  -0.0016  -0.0114
 201 C   :3d1+  -0.0002  -0.0046   0.0010  -0.0035  -0.0052  -0.0013  -0.0105
 202 C   :3d2+   0.0019   0.0110  -0.0036  -0.0022  -0.0051   0.0042   0.0001
 203 C   :3d2-   0.0153   0.0346   0.0080  -0.0008  -0.0071   0.0071  -0.0311
 204 C   :3d1-  -0.0041  -0.0268   0.0189   0.0127  -0.0029  -0.0257  -0.0046
 205 C   :3d0    0.0027   0.0226  -0.0154  -0.0069   0.0040   0.0244  -0.0005
 206 C   :3d1+  -0.0152  -0.0462  -0.0037   0.0023   0.0036  -0.0113   0.0111
 207 C   :3d2+  -0.0058  -0.0406   0.0327   0.0234  -0.0095  -0.0421  -0.0090
 209 C   :1s     0.0039  -0.0331   0.0299   0.0178  -0.0183   0.0324   0.0047
 210 C   :1s    -0.0281  -0.2565  -0.0399   0.0017   0.0028  -0.0693   0.1197
 211 C   :1s    -0.0936  -0.8799   0.3943   0.2403  -0.2291  -0.2846   0.1067
 212 C   :2px    0.0138   0.1606  -0.0976  -0.0870   0.0043   0.0837   0.0244
 213 C   :2py    0.0236   0.1323  -0.0548  -0.0802  -0.2752   0.0136  -0.1431
 214 C   :2pz   -0.0087  -0.1158   0.0441  -0.0078  -0.2886  -0.0520  -0.1296
 215 C   :2px   -0.0352  -0.2126   0.0458   0.0443   0.0046  -0.0433   0.0254
 216 C   :2py    0.0729   0.2080   0.0612   0.0182  -0.0009   0.0582  -0.1323
 217 C   :2pz   -0.0706  -0.2154  -0.0647  -0.0041   0.0652  -0.0422   0.1729
 218 C   :2px    0.0859   0.2341  -0.0728  -0.0028   0.1228   0.1447  -0.0742
 219 C   :2py   -0.0323  -0.0065   0.0175   0.0188   0.0067   0.0137  -0.0267
 220 C   :2pz    0.0476   0.0528  -0.0329  -0.0112   0.0308   0.0041   0.0350
 226 C   :3d2-  -0.0099  -0.1084   0.0137   0.0307   0.0140  -0.0182   0.0208
 227 C   :3d1-   0.0143   0.0076   0.0463   0.0273  -0.0068  -0.0356  -0.0295
 228 C   :3d0   -0.0065  -0.0230  -0.0366  -0.0169   0.0146   0.0354   0.0148
 229 C   :3d1+   0.0063   0.1051  -0.0079  -0.0233  -0.0060   0.0184  -0.0311
 230 C   :3d2+   0.0171   0.0213   0.0672   0.0351  -0.0043  -0.0464  -0.0488
 232 C   :1s     0.0080   0.0070  -0.0031  -0.0382   0.0006  -0.0394   0.0083
 233 C   :1s     0.1053   0.4036   0.1004  -0.0128  -0.0142   0.2136  -0.1470
 234 C   :1s    -0.1829  -0.1335   0.0380   0.1576   0.1184   0.0519  -0.0007
 235 C   :2px   -0.0775  -0.0670   0.0149   0.0014   0.0012   0.0474   0.0283
 236 C   :2py    0.0760   0.0673   0.0842  -0.0345  -0.0028  -0.0840  -0.0481
 237 C   :2pz    0.0147   0.0476   0.0092  -0.0625  -0.0058   0.2298   0.0598
 238 C   :2px    0.0287  -0.1484  -0.0321  -0.0547   0.0083  -0.1829   0.0934
 239 C   :2py   -0.0117   0.1456  -0.0319   0.0127   0.0226   0.1180   0.0362
 240 C   :2pz   -0.0035   0.0639  -0.0013   0.0081   0.0064   0.0109  -0.0190
 241 C   :2px   -0.0440  -0.2788   0.0798   0.0441   0.0472  -0.0394  -0.0297
 242 C   :2py    0.0433   0.0114   0.0897   0.0017   0.0458  -0.0060   0.0077
 243 C   :2pz    0.0123  -0.0152   0.0254   0.0389  -0.0036  -0.0066   0.0111
 244 C   :3d2-  -0.0177  -0.0173  -0.0106  -0.0027   0.0005   0.0028   0.0046
 245 C   :3d1-  -0.0113   0.0088  -0.0007   0.0003  -0.0004   0.0135  -0.0009
 247 C   :3d1+  -0.0183   0.0034  -0.0005   0.0078  -0.0000  -0.0127  -0.0024
 248 C   :3d2+  -0.0050   0.0044   0.0141  -0.0130  -0.0001  -0.0036   0.0048
 249 C   :3d2-  -0.0004  -0.0818   0.0037  -0.0235  -0.0043  -0.0712   0.0044
 250 C   :3d1-  -0.0070   0.0460   0.0048  -0.0043  -0.0024   0.0298  -0.0005
 251 C   :3d0   -0.0017   0.0139  -0.0044  -0.0037  -0.0005   0.0166   0.0032
 252 C   :3d1+  -0.0117   0.0172   0.0135  -0.0058  -0.0032  -0.0142  -0.0065
 253 C   :3d2+   0.0024   0.0381   0.0606   0.0362  -0.0044  -0.0361  -0.0572
 255 C   :1s     0.0369   0.0177  -0.0014  -0.0099   0.0018  -0.0245   0.0431
 256 C   :1s    -0.0471  -0.1668   0.0138  -0.0746  -0.0015  -0.0266   0.0447
 257 C   :1s    -0.0001  -0.1081   0.0444   0.0285  -0.1374   0.0582  -0.1301
 258 C   :2px    0.0704   0.0274   0.1011   0.0170  -0.0100   0.1362  -0.1123
 259 C   :2py   -0.1084  -0.1644   0.0174   0.1165  -0.0024  -0.0084  -0.0612
 260 C   :2pz   -0.0494  -0.0271  -0.0610  -0.1382   0.0012   0.3784   0.0940
 261 C   :2px   -0.0184  -0.1860   0.0807  -0.0122  -0.0339  -0.2344   0.1075
 262 C   :2py   -0.0293   0.0702   0.0521  -0.0133  -0.0240   0.0763   0.0842
 263 C   :2pz   -0.0121   0.0465  -0.0346  -0.0385   0.0173   0.0139   0.0054
 264 C   :2px    0.0749   0.1611  -0.1250  -0.2594  -0.1202   0.0240   0.0917
 265 C   :2py    0.0024  -0.0572   0.1553  -0.0610  -0.1582  -0.1372   0.0449
 266 C   :2pz    0.0070   0.1214   0.0133  -0.0706   0.0041  -0.0050   0.0379
 272 C   :3d2-   0.0832   0.2722   0.0949   0.0232  -0.0150   0.1293  -0.1209
 273 C   :3d1-  -0.0500  -0.1504  -0.0901  -0.0561   0.0182  -0.0428   0.1016
 274 C   :3d0    0.0134   0.0090  -0.0018  -0.0204   0.0039  -0.0183   0.0025
 275 C   :3d1+  -0.0035  -0.0295  -0.0171  -0.0085   0.0029   0.0215   0.0349
 276 C   :3d2+  -0.0031  -0.0126   0.0045   0.0811  -0.0094   0.0015  -0.1351
 278 C   :1s     0.0059   0.0094  -0.0057   0.0060   0.0028   0.0354  -0.0386
 279 C   :1s     0.0776  -0.0303  -0.0083  -0.0367   0.0181   0.0378   0.1060
 280 C   :1s     0.2269   0.5274  -0.1222  -0.2875  -0.1303   0.1978  -0.1242
 281 C   :2px   -0.0403  -0.0273  -0.0964  -0.0707   0.0039  -0.0177   0.0940
 282 C   :2py   -0.0155  -0.0067  -0.0934  -0.2369   0.0170   0.0255   0.1023
 283 C   :2pz   -0.0232  -0.0643  -0.0746  -0.2193   0.0100  -0.0080   0.0047
 284 C   :2px   -0.1015  -0.2331   0.0567  -0.0277  -0.0219  -0.2215   0.1493
 285 C   :2py    0.0886   0.2435   0.0866   0.0225  -0.0102   0.0875  -0.1103
 286 C   :2pz   -0.0227  -0.1052  -0.0397   0.0268   0.0039  -0.0059   0.0397
 287 C   :2px   -0.0759  -0.3848   0.2058   0.1524  -0.1138  -0.1397  -0.0045
 288 C   :2py    0.0227   0.0610  -0.0554  -0.0190   0.0527   0.0121   0.0772
 289 C   :2pz    0.0412   0.1750  -0.0822  -0.0533   0.0381   0.0707  -0.0980
 290 C   :3d2-  -0.0032  -0.0024  -0.0059  -0.0017   0.0017  -0.0055   0.0183
 292 C   :3d0   -0.0013  -0.0040   0.0017   0.0018   0.0011  -0.0139   0.0152
 293 C   :3d1+  -0.0004  -0.0015   0.0063   0.0097  -0.0021   0.0155  -0.0030
 294 C   :3d2+   0.0029   0.0093  -0.0039  -0.0062   0.0018   0.0025   0.0197
 295 C   :3d2-   0.0365   0.0172   0.0347   0.0008   0.0011  -0.0453   0.0389
 296 C   :3d1-  -0.0052  -0.0520  -0.0217   0.0213  -0.0090  -0.0003  -0.0093
 297 C   :3d0   -0.0008   0.0279   0.0176  -0.0108  -0.0007  -0.0122   0.0145
 298 C   :3d1+  -0.0016   0.0448  -0.0106   0.0064   0.0059   0.0807  -0.0440
 299 C   :3d2+  -0.0226  -0.1193  -0.0522   0.0435  -0.0206  -0.0296   0.0413
 301 C   :1s    -0.0181  -0.0227  -0.0503   0.0087   0.0026   0.0113   0.0176
 302 C   :1s     0.0161   0.0988   0.0518   0.0229   0.0122   0.0048  -0.0126
 303 C   :1s     0.1856   0.0654   0.2952  -0.2046  -0.0065  -0.1590   0.0906
 304 C   :2px    0.2788   0.2052  -0.2429   0.2475  -0.0078   0.0042  -0.0989
 305 C   :2py   -0.2051  -0.0826  -0.0640   0.0187   0.0004   0.0682   0.0110
 306 C   :2pz    0.2956  -0.2401  -0.0195  -0.0240   0.0157  -0.1741   0.0515
 307 C   :2px   -0.0395  -0.0305   0.0586  -0.0340   0.0007  -0.0222  -0.0014
 308 C   :2py    0.0370   0.0599   0.0226   0.0306   0.0103   0.0090  -0.0044
 309 C   :2pz   -0.0433   0.0744   0.0158   0.0148  -0.0032   0.0291  -0.0171
 310 C   :2px    0.0096   0.0156  -0.0198   0.0334   0.0074  -0.0007  -0.0080
 311 C   :2py    0.0115   0.0031   0.0394  -0.0196  -0.0075  -0.0216   0.0069
 312 C   :2pz    0.0246   0.0128  -0.0014  -0.0319   0.0032  -0.0052   0.0133
 313 C   :3d2-  -0.0154  -0.0133   0.0092  -0.0124   0.0007   0.0013   0.0085
 314 C   :3d1-  -0.0128   0.0126  -0.0006  -0.0004  -0.0011   0.0200   0.0001
 317 C   :3d2+  -0.0105  -0.0032   0.0062  -0.0035  -0.0002   0.0070   0.0002
 318 C   :3d2-  -0.0132  -0.0140   0.0209  -0.0198   0.0004  -0.0102   0.0054
 319 C   :3d1-  -0.0106   0.0195   0.0034   0.0035  -0.0025   0.0221  -0.0011
 322 C   :3d2+  -0.0054   0.0022   0.0101  -0.0044  -0.0024   0.0054  -0.0041
 324 C   :1s    -0.0104  -0.0188   0.0112  -0.0202   0.0014  -0.0261   0.0187
 325 C   :1s    -0.0083   0.0603  -0.0626   0.0256  -0.0013   0.1434   0.0092
 326 C   :1s     0.1432   0.3699  -0.1543   0.0890  -0.0911   0.0411  -0.0439
 327 C   :2px    0.0477   0.1155   0.0489   0.0184  -0.0035   0.0068  -0.0345
 328 C   :2py   -0.0788  -0.1635  -0.4702   0.1850   0.0065  -0.0050   0.0110
 329 C   :2pz   -0.4200   0.1632  -0.0244   0.1225   0.0013  -0.1785  -0.0345
 330 C   :2px    0.0005  -0.0528   0.0078  -0.0170   0.0008  -0.0731   0.0090
 331 C   :2py    0.0118   0.0508   0.0938  -0.0183  -0.0011  -0.0034  -0.0092
 332 C   :2pz    0.0630  -0.0432  -0.0110  -0.0112   0.0023   0.0289   0.0127
 333 C   :2px   -0.0125  -0.0176   0.0207  -0.0181   0.0087  -0.0048   0.0121
 334 C   :2py   -0.0073  -0.0609  -0.0203   0.0392   0.0066  -0.0192  -0.0101
 335 C   :2pz   -0.0229   0.0139  -0.0026   0.0070  -0.0038  -0.0050  -0.0164
 336 C   :3d2-  -0.0081  -0.0107  -0.0239   0.0099   0.0005   0.0012   0.0029
 339 C   :3d1+  -0.0190   0.0063  -0.0020   0.0087   0.0003  -0.0206  -0.0051
 340 C   :3d2+   0.0003   0.0050   0.0101  -0.0026  -0.0001  -0.0048  -0.0020
 341 C   :3d2-  -0.0075  -0.0187  -0.0285   0.0090   0.0004  -0.0023   0.0042
 344 C   :3d1+  -0.0145   0.0171   0.0065   0.0037  -0.0009  -0.0210  -0.0123
 347 C   :1s    -0.0005  -0.0157   0.0267   0.0291   0.0019   0.0095  -0.0148
 348 C   :1s     0.0091  -0.1590   0.0193   0.0377  -0.0006  -0.0385  -0.0652
 349 C   :1s    -0.1898  -0.1807  -0.0178   0.3429   0.2456   0.0445  -0.1601
 350 C   :2px    0.0160  -0.0119  -0.0410  -0.0636   0.0098   0.2811   0.0592
 351 C   :2py    0.0666   0.1109  -0.0357  -0.1034   0.0061  -0.1052   0.0481
 352 C   :2pz    0.0235   0.1023   0.0804   0.0325   0.0142   0.0795  -0.0027
 353 C   :2px   -0.0029  -0.1021   0.0178   0.0679   0.0375  -0.0783   0.1097
 354 C   :2py   -0.0318  -0.0353   0.0647  -0.0219  -0.0148   0.0660   0.0993
 355 C   :2pz   -0.0575   0.0488  -0.0339  -0.1311  -0.0512   0.0775  -0.0465
 356 C   :2px   -0.0155   0.1123  -0.0540  -0.0841   0.0118   0.1023   0.0370
 357 C   :2py    0.0150   0.0151   0.1278   0.0900  -0.1237   0.0226  -0.0754
 358 C   :2pz   -0.0030  -0.1340   0.1514   0.2164   0.0297  -0.0304  -0.1184
 360 C   :3d1-   0.0024   0.0046   0.0051   0.0054  -0.0005  -0.0132  -0.0055
 364 C   :3d2-   0.0713   0.1174   0.0808   0.0650  -0.0097   0.0100  -0.0858
 365 C   :3d1-  -0.0841  -0.1476  -0.1382  -0.1169   0.0113  -0.0134   0.0884
 366 C   :3d0   -0.0414  -0.0631   0.0175   0.0179   0.0001  -0.0007   0.0261
 367 C   :3d1+   0.0095   0.0040  -0.0423  -0.0274   0.0101  -0.0267   0.0078
 368 C   :3d2+   0.0035   0.0342   0.0550   0.0158  -0.0219   0.0173  -0.0167
 370 C   :1s    -0.0097   0.0041   0.0163  -0.0289   0.0004   0.0317   0.0185
 371 C   :1s    -0.0493  -0.1163  -0.1488  -0.1665  -0.0013  -0.0087   0.0595
 372 C   :1s     0.0568  -0.2696  -0.1805   0.0227   0.0645   0.1216   0.0446
 373 C   :2px   -0.0106   0.0339   0.0284   0.0309  -0.0281   0.0201  -0.0720
 374 C   :2py   -0.0226  -0.1198  -0.0277   0.0890   0.0071  -0.0465  -0.0241
 375 C   :2pz    0.0135  -0.0970  -0.1257  -0.0374  -0.0151   0.0753   0.0056
 376 C   :2px    0.0419  -0.0190   0.0702   0.0813   0.0169  -0.0123   0.0140
 377 C   :2py    0.0223   0.0139   0.1255   0.0202   0.0139  -0.0379   0.0717
 378 C   :2pz   -0.0731   0.0096  -0.0461  -0.0894  -0.0035  -0.0246   0.0159
 379 C   :2px   -0.0108  -0.0047  -0.0663  -0.0260   0.0041   0.0443   0.0182
 380 C   :2py   -0.0021  -0.0167  -0.1856  -0.1150   0.0271   0.1222   0.0783
 381 C   :2pz    0.0268  -0.0189   0.0269  -0.0017  -0.0168  -0.0456  -0.0028
 383 C   :3d1-   0.0010   0.0076   0.0055   0.0004  -0.0008  -0.0108  -0.0027
 387 C   :3d2-   0.0132   0.0570   0.0330  -0.0031  -0.0025  -0.0013  -0.0169
 388 C   :3d1-  -0.0011  -0.0580  -0.0192  -0.0020   0.0027  -0.0051   0.0272
 389 C   :3d0   -0.0298  -0.0430  -0.0362  -0.0049   0.0014   0.0052   0.0045
 390 C   :3d1+   0.0184   0.0037   0.0167   0.0121   0.0052  -0.0040   0.0081
 391 C   :3d2+  -0.0284  -0.0133  -0.0251  -0.0182  -0.0020   0.0107  -0.0047
 393 C   :1s     0.0095   0.0119   0.0198   0.0298   0.0056  -0.0389  -0.0007
 394 C   :1s     0.1131   0.1764   0.1121   0.0950  -0.0011  -0.0623  -0.0947
 395 C   :1s     0.1149   0.3750  -0.0629  -0.3276   0.0090  -0.0834   0.0922
 396 C   :2px    0.0092   0.0655   0.0597  -0.0205   0.0302   0.0371   0.0572
 397 C   :2py   -0.0715  -0.1342  -0.0502  -0.0166  -0.0120   0.0496  -0.0256
 398 C   :2pz   -0.0125  -0.0563  -0.0326   0.0065   0.0114   0.0995   0.0634
 399 C   :2px    0.0353   0.0557   0.0349   0.0577  -0.0126   0.0081  -0.0273
 400 C   :2py   -0.0354   0.0299   0.0209  -0.0565  -0.0474   0.0173   0.0168
 401 C   :2pz   -0.0703  -0.0719  -0.0628  -0.1280  -0.0111  -0.0010   0.0436
 402 C   :2px    0.0265   0.0512  -0.0343  -0.0359   0.0004  -0.0168   0.0297
 403 C   :2py    0.0277   0.0395   0.1260   0.0461   0.0077  -0.1443  -0.0679
 404 C   :2pz   -0.0073  -0.0455   0.0747   0.0752   0.0100  -0.0419  -0.0502
 410 C   :3d2-  -0.0057   0.0101   0.0145  -0.0153  -0.0029  -0.0040   0.0027
 411 C   :3d1-  -0.0039  -0.0412  -0.0420   0.0174   0.0133  -0.0099   0.0245
 412 C   :3d0    0.0136   0.0029   0.0244   0.0375   0.0036  -0.0037  -0.0164
 413 C   :3d1+  -0.0071  -0.0185  -0.0216  -0.0160   0.0034  -0.0038   0.0168
 414 C   :3d2+   0.0145   0.0187   0.0384   0.0276   0.0001   0.0039  -0.0235
 416 C   :1s     0.0050  -0.0060   0.0020   0.0213  -0.0005  -0.0141  -0.0110
 417 C   :1s    -0.0301   0.0216  -0.0164   0.0238   0.0090   0.0235  -0.0426
 418 C   :1s    -0.1230   0.0260   0.1767   0.1277  -0.0434  -0.1348  -0.0889
 419 C   :2px    0.0164   0.0144  -0.0442  -0.0561  -0.0461  -0.1518  -0.0677
 420 C   :2py    0.0282   0.1114   0.0292  -0.0638   0.0130   0.0540   0.0480
 421 C   :2pz    0.0102   0.1036   0.0626  -0.0046  -0.0272  -0.1208  -0.0577
 422 C   :2px   -0.0172  -0.0193   0.0022   0.0054  -0.0018  -0.0048   0.0117
 423 C   :2py    0.0372   0.0032   0.1028   0.0451   0.0140  -0.0413   0.0285
 424 C   :2pz    0.0421   0.0170   0.0279   0.0190   0.0151   0.0217   0.0068
 425 C   :2px    0.0179   0.0106   0.0160  -0.0012  -0.0021  -0.0050  -0.0043
 426 C   :2py   -0.0122  -0.0150  -0.1147  -0.0513   0.0120   0.1070   0.0456
 427 C   :2pz   -0.0357  -0.0139  -0.0691  -0.0229   0.0085   0.0492   0.0164
 433 C   :3d2-  -0.0043   0.0213   0.0105   0.0001  -0.0027   0.0008  -0.0123
 434 C   :3d1-   0.0031  -0.0314  -0.0198  -0.0125   0.0044   0.0021   0.0187
 435 C   :3d0    0.0056  -0.0068   0.0149   0.0063   0.0028  -0.0077   0.0053
 436 C   :3d1+  -0.0044   0.0035  -0.0140  -0.0134  -0.0024   0.0030   0.0012
 437 C   :3d2+   0.0051   0.0046   0.0231   0.0126   0.0011  -0.0049  -0.0037
 439 C   :1s    -0.0100  -0.0112  -0.0042  -0.0110   0.0001   0.0181   0.0004
 440 C   :1s     0.0144  -0.0542  -0.0382   0.0203   0.0148   0.0155  -0.0199
 441 C   :1s    -0.1558  -0.2938  -0.1119   0.0762  -0.0400   0.0784   0.0098
 442 C   :2px    0.0285   0.0515   0.0107  -0.0346   0.0004  -0.1578   0.0297
[...]
 66   YDIPLEN   ZDIPLEN    0.060000      -12.271019       -0.452979

      Averaged value       0.060000      318.707764       10.425475

 67   XDIPLEN   XDIPLEN    0.061000      493.029864       27.975165
 68   YDIPLEN   YDIPLEN    0.061000      286.906938        4.292638
 69   ZDIPLEN   ZDIPLEN    0.061000      182.986966        0.962967
 70   XDIPLEN   YDIPLEN    0.061000      -64.352529       -7.708833
 71   XDIPLEN   ZDIPLEN    0.061000        1.249057        1.480047
 72   YDIPLEN   ZDIPLEN    0.061000      -12.368336       -0.488935

      Averaged value       0.061000      320.974589       11.076924

 73   XDIPLEN   XDIPLEN    0.062000      499.091665       29.868178
 74   YDIPLEN   YDIPLEN    0.062000      287.844558        4.508818
 75   ZDIPLEN   ZDIPLEN    0.062000      183.198874        0.995377
 76   XDIPLEN   YDIPLEN    0.062000      -66.019590       -8.251118
 77   XDIPLEN   ZDIPLEN    0.062000        1.567123        1.594106
 78   YDIPLEN   ZDIPLEN    0.062000      -12.473072       -0.528964

      Averaged value       0.062000      323.378365       11.790791

 79   XDIPLEN   XDIPLEN    0.063000      505.548877       31.953487
 80   YDIPLEN   YDIPLEN    0.063000      288.827659        4.743964
 81   ZDIPLEN   ZDIPLEN    0.063000      183.417708        1.029794
 82   XDIPLEN   YDIPLEN    0.063000      -67.799465       -8.850166
 83   XDIPLEN   ZDIPLEN    0.063000        1.908609        1.721150
 84   YDIPLEN   ZDIPLEN    0.063000      -12.586010       -0.573685

      Averaged value       0.063000      325.931415       12.575748

 85   XDIPLEN   XDIPLEN    0.064000      512.439029       34.258791
 86   YDIPLEN   YDIPLEN    0.064000      289.859929        5.000796
 87   ZDIPLEN   ZDIPLEN    0.064000      183.643864        1.066489
 88   XDIPLEN   YDIPLEN    0.064000      -69.703151       -9.514339
 89   XDIPLEN   ZDIPLEN    0.064000        2.275976        1.863219
 90   YDIPLEN   ZDIPLEN    0.064000      -12.708041       -0.623837

      Averaged value       0.064000      328.647607       13.442025

 91   XDIPLEN   XDIPLEN    0.065000      519.804488       36.816948
 92   YDIPLEN   YDIPLEN    0.065000      290.945523        5.282553
 93   ZDIPLEN   ZDIPLEN    0.065000      183.877780        1.105788
 94   XDIPLEN   YDIPLEN    0.065000      -71.743084      -10.253592
 95   XDIPLEN   ZDIPLEN    0.065000        2.672022        2.022765
 96   YDIPLEN   ZDIPLEN    0.065000      -12.840180       -0.680306

      Averaged value       0.065000      331.542597       14.401763

 97   XDIPLEN   XDIPLEN    0.066000      527.693210       39.667171
 98   YDIPLEN   YDIPLEN    0.066000      292.089138        5.593110
 99   ZDIPLEN   ZDIPLEN    0.066000      184.119953        1.148077
100   XDIPLEN   YDIPLEN    0.066000      -73.933371      -11.079847
101   XDIPLEN   ZDIPLEN    0.066000        3.099944        2.202751
102   YDIPLEN   ZDIPLEN    0.066000      -12.983587       -0.744159

      Averaged value       0.066000      334.634100       15.469453

103   XDIPLEN   XDIPLEN    0.067000      536.159612       42.856551
104   YDIPLEN   YDIPLEN    0.067000      293.296095        5.937140
105   ZDIPLEN   ZDIPLEN    0.067000      184.370940        1.193824
106   XDIPLEN   YDIPLEN    0.067000      -76.290051      -12.007467
107   XDIPLEN   ZDIPLEN    0.067000        3.563397        2.406778
108   YDIPLEN   ZDIPLEN    0.067000      -13.139588       -0.816691

      Averaged value       0.067000      337.942216       16.662505

109   XDIPLEN   XDIPLEN    0.068000      545.265587       46.442023
110   YDIPLEN   YDIPLEN    0.068000      294.572440        6.320318
111   ZDIPLEN   ZDIPLEN    0.068000      184.631373        1.243594
112   XDIPLEN   YDIPLEN    0.068000      -78.831401      -13.053886
113   XDIPLEN   ZDIPLEN    0.068000        4.066569        2.639257
114   YDIPLEN   ZDIPLEN    0.068000      -13.309706       -0.899487

      Averaged value       0.068000      341.489800       18.001978

115   XDIPLEN   XDIPLEN    0.069000      555.081827       50.493003
116   YDIPLEN   YDIPLEN    0.069000      295.925057        6.749581
117   ZDIPLEN   ZDIPLEN    0.069000      184.901966        1.298078
118   XDIPLEN   YDIPLEN    0.069000      -81.578286      -14.240409
119   XDIPLEN   ZDIPLEN    0.069000        4.614270        2.905629
120   YDIPLEN   ZDIPLEN    0.069000      -13.495687       -0.994497

      Averaged value       0.069000      345.302950       19.513554

121   XDIPLEN   XDIPLEN    0.070000      565.688558       55.094405
122   YDIPLEN   YDIPLEN    0.070000      297.361793        7.233486
123   ZDIPLEN   ZDIPLEN    0.070000      185.183530        1.358124
124   XDIPLEN   YDIPLEN    0.070000      -84.554563      -15.593283
125   XDIPLEN   ZDIPLEN    0.070000        5.212026        3.212662
126   YDIPLEN   ZDIPLEN    0.070000      -13.699539       -1.104140

      Averaged value       0.070000      349.411294       21.228672

127   XDIPLEN   XDIPLEN    0.071000      577.177876       60.351549
128   YDIPLEN   YDIPLEN    0.071000      298.891600        7.782667
129   ZDIPLEN   ZDIPLEN    0.071000      185.476988        1.424790
130   XDIPLEN   YDIPLEN    0.071000      -87.787511      -17.145110
131   XDIPLEN   ZDIPLEN    0.071000        5.866177        3.568843
132   YDIPLEN   ZDIPLEN    0.071000      -13.923569       -1.231444

      Averaged value       0.071000      353.848822       23.186335

133   XDIPLEN   XDIPLEN    0.072000      589.654748       66.395778
134   YDIPLEN   YDIPLEN    0.072000      300.524679        8.410470
135   ZDIPLEN   ZDIPLEN    0.072000      185.783385        1.499398
136   XDIPLEN   YDIPLEN    0.072000      -91.308297      -18.936737
137   XDIPLEN   ZDIPLEN    0.072000        6.583988        3.984909
138   YDIPLEN   ZDIPLEN    0.072000      -14.170422       -1.380230

      Averaged value       0.072000      358.654271       25.435215

139   XDIPLEN   XDIPLEN    0.073000      603.238681       73.392525
140   YDIPLEN   YDIPLEN    0.073000      302.272614        9.133794
141   ZDIPLEN   ZDIPLEN    0.073000      186.103906        1.583621
142   XDIPLEN   YDIPLEN    0.073000      -95.152404      -21.019835
143   XDIPLEN   ZDIPLEN    0.073000        7.373734        4.474572
144   YDIPLEN   ZDIPLEN    0.073000      -14.443115       -1.555367

      Averaged value       0.073000      363.871734       28.036647

145   XDIPLEN   XDIPLEN    0.074000      618.064952       81.552213
146   YDIPLEN   YDIPLEN    0.074000      304.148469        9.974257
147   ZDIPLEN   ZDIPLEN    0.074000      186.439884        1.679599
148   XDIPLEN   YDIPLEN    0.074000      -99.359955      -23.460401
149   XDIPLEN   ZDIPLEN    0.074000        8.244747        5.055521
150   YDIPLEN   ZDIPLEN    0.074000      -14.745055       -1.763118

      Averaged value       0.074000      369.551102       31.068690

151   XDIPLEN   XDIPLEN    0.075000      634.285019       91.145261
152   YDIPLEN   YDIPLEN    0.075000      306.166774       10.959806
153   ZDIPLEN   ZDIPLEN    0.075000      186.792798        1.790094
154   XDIPLEN   YDIPLEN    0.075000     -103.975735      -26.343617
155   XDIPLEN   ZDIPLEN    0.075000        9.207356        5.750807
156   YDIPLEN   ZDIPLEN    0.075000      -15.080030       -2.011625

      Averaged value       0.075000      375.748197       34.631720

157   XDIPLEN   XDIPLEN    0.076000      652.065084      102.522934
158   YDIPLEN   YDIPLEN    0.076000      308.343304       12.126957
159   ZDIPLEN   ZDIPLEN    0.076000      187.164253        1.918714
160   XDIPLEN   YDIPLEN    0.076000     -109.048576      -29.780604
161   XDIPLEN   ZDIPLEN    0.076000       10.272627        6.590789
162   YDIPLEN   ZDIPLEN    0.076000      -15.452123       -2.311585

      Averaged value       0.076000      382.524213       38.856202

163   XDIPLEN   XDIPLEN    0.077000      671.580869      116.146518
164   YDIPLEN   YDIPLEN    0.077000      310.694395       13.523950
165   ZDIPLEN   ZDIPLEN    0.077000      187.555911        2.070222
166   XDIPLEN   YDIPLEN    0.077000     -114.629432      -33.917913
167   XDIPLEN   ZDIPLEN    0.077000       11.451669        7.615879
168   YDIPLEN   ZDIPLEN    0.077000      -15.865487       -2.677202

      Averaged value       0.077000      389.943725       43.913563

169   XDIPLEN   XDIPLEN    0.078000      693.004937      132.628306
170   YDIPLEN   YDIPLEN    0.078000      313.235416       15.215193
171   ZDIPLEN   ZDIPLEN    0.078000      187.969345        2.250973
172   XDIPLEN   YDIPLEN    0.078000     -120.766920      -38.950874
173   XDIPLEN   ZDIPLEN    0.078000       12.754153        8.880426
174   YDIPLEN   ZDIPLEN    0.078000      -16.323848       -3.127528

      Averaged value       0.078000      398.069899       50.031491

175   XDIPLEN   XDIPLEN    0.079000      716.479554      152.789061
176   YDIPLEN   YDIPLEN    0.079000      315.977558       17.287507
177   ZDIPLEN   ZDIPLEN    0.079000      188.405719        2.469531
178   XDIPLEN   YDIPLEN    0.079000     -127.497944      -45.142357
179   XDIPLEN   ZDIPLEN    0.079000       14.185271       10.458187
180   YDIPLEN   ZDIPLEN    0.079000      -16.829484       -3.688363

      Averaged value       0.079000      406.954277       57.515366

181   XDIPLEN   XDIPLEN    0.080000      742.061881      177.737442
182   YDIPLEN   YDIPLEN    0.080000      318.921457       19.858770
183   ZDIPLEN   ZDIPLEN    0.080000      188.865166        2.737516
184   XDIPLEN   YDIPLEN    0.080000     -134.828947      -52.848714
185   XDIPLEN   ZDIPLEN    0.080000       15.739775       12.449905
186   YDIPLEN   ZDIPLEN    0.080000      -17.381213       -4.394875

      Averaged value       0.080000      416.616168       66.777909

187   XDIPLEN   XDIPLEN    0.081000      769.616537      208.975632
188   YDIPLEN   YDIPLEN    0.081000      322.044776       23.089392
189   ZDIPLEN   ZDIPLEN    0.081000      189.345567        3.070739
190   XDIPLEN   YDIPLEN    0.081000     -142.699363      -62.554244
191   XDIPLEN   ZDIPLEN    0.081000       17.390448       14.993356
192   YDIPLEN   ZDIPLEN    0.081000      -17.970488       -5.295073

      Averaged value       0.081000      427.002293       78.378588

193   XDIPLEN   XDIPLEN    0.082000      798.609375      248.526753
194   YDIPLEN   YDIPLEN    0.082000      325.278495       27.196039
195   ZDIPLEN   ZDIPLEN    0.082000      189.840220        3.490548
196   XDIPLEN   YDIPLEN    0.082000     -150.911675      -74.912525
197   XDIPLEN   ZDIPLEN    0.082000       19.066189       18.275263
198   YDIPLEN   ZDIPLEN    0.082000      -18.573964       -6.453950

      Averaged value       0.082000      437.909363       93.071113

199   XDIPLEN   XDIPLEN    0.083000      827.721204      299.049281
200   YDIPLEN   YDIPLEN    0.083000      328.462605       32.463470
201   ZDIPLEN   ZDIPLEN    0.083000      190.333488        4.025000
202   XDIPLEN   YDIPLEN    0.083000     -159.000654      -90.782542
203   XDIPLEN   ZDIPLEN    0.083000       20.611153       22.541154
204   YDIPLEN   ZDIPLEN    0.083000      -19.139629       -7.956960

      Averaged value       0.083000      448.839099      111.845917

205   XDIPLEN   XDIPLEN    0.084000      854.155801      363.814130
206   YDIPLEN   YDIPLEN    0.084000      331.266907       39.240154
207   ZDIPLEN   ZDIPLEN    0.084000      190.793019        4.708432
208   XDIPLEN   YDIPLEN    0.084000     -165.999471     -111.217453
209   XDIPLEN   ZDIPLEN    0.084000       21.711851       28.089797
210   YDIPLEN   ZDIPLEN    0.084000      -19.562045       -9.908325

      Averaged value       0.084000      458.738576      135.920905

211   XDIPLEN   XDIPLEN    0.085000      872.518509      446.203468
212   YDIPLEN   YDIPLEN    0.085000      333.062873       47.877960
213   ZDIPLEN   ZDIPLEN    0.085000      191.157148        5.575547
214   XDIPLEN   YDIPLEN    0.085000     -170.061037     -137.289148
215   XDIPLEN   ZDIPLEN    0.085000       21.779413       35.215317
216   YDIPLEN   ZDIPLEN    0.085000      -19.642332      -12.411671

      Averaged value       0.085000      465.579510      166.552325

217   XDIPLEN   XDIPLEN    0.086000      873.418422      547.958540
218   YDIPLEN   YDIPLEN    0.086000      332.764681       58.527092
219   ZDIPLEN   ZDIPLEN    0.086000      191.319281        6.641281
220   XDIPLEN   YDIPLEN    0.086000     -167.987589     -169.486929
221   XDIPLEN   ZDIPLEN    0.086000       19.804118       44.014643
222   YDIPLEN   ZDIPLEN    0.086000      -19.038648      -15.505118

      Averaged value       0.086000      465.834128      204.375638

223   XDIPLEN   XDIPLEN    0.087000      843.107145      665.053397
224   YDIPLEN   YDIPLEN    0.087000      328.791194       70.656512
225   ZDIPLEN   ZDIPLEN    0.087000      191.124144        7.853697
226   XDIPLEN   YDIPLEN    0.087000     -155.115273     -206.308024
227   XDIPLEN   ZDIPLEN    0.087000       14.323180       53.940050
228   YDIPLEN   ZDIPLEN    0.087000      -17.254897      -19.010064

      Averaged value       0.087000      454.340828      247.854535

229   XDIPLEN   XDIPLEN    0.088000      767.934072      781.581946
230   YDIPLEN   YDIPLEN    0.088000      319.585187       82.344165
231   ZDIPLEN   ZDIPLEN    0.088000      190.418770        9.024280
232   XDIPLEN   YDIPLEN    0.088000     -126.838839     -242.170917
233   XDIPLEN   ZDIPLEN    0.088000        3.906358       63.137504
234   YDIPLEN   ZDIPLEN    0.088000      -13.804681      -22.307518

      Averaged value       0.088000      425.979343      290.983464

235   XDIPLEN   XDIPLEN    0.089000      647.416599      868.705283
236   YDIPLEN   YDIPLEN    0.089000      305.129585       90.147601
237   ZDIPLEN   ZDIPLEN    0.089000      189.201428        9.815252
238   XDIPLEN   YDIPLEN    0.089000      -83.070477     -267.041591
239   XDIPLEN   ZDIPLEN    0.089000      -11.431682       68.320139
240   YDIPLEN   ZDIPLEN    0.089000       -8.688880      -24.296072

      Averaged value       0.089000      380.582537      322.889379

241   XDIPLEN   XDIPLEN    0.090000      506.727886      900.945533
242   YDIPLEN   YDIPLEN    0.090000      288.408237       90.969821
243   ZDIPLEN   ZDIPLEN    0.090000      187.765050        9.922912
244   XDIPLEN   YDIPLEN    0.090000      -32.524345     -271.943030
245   XDIPLEN   ZDIPLEN    0.090000      -28.860701       66.486236
246   YDIPLEN   ZDIPLEN    0.090000       -2.857870      -23.975336

      Averaged value       0.090000      327.633724      333.946089

247   XDIPLEN   XDIPLEN    0.091000      384.717966      881.135634
248   YDIPLEN   YDIPLEN    0.091000      274.072950       84.928162
249   ZDIPLEN   ZDIPLEN    0.091000      186.566129        9.359491
250   XDIPLEN   YDIPLEN    0.091000       11.255795     -257.415394
251   XDIPLEN   ZDIPLEN    0.091000      -43.929871       57.570579
252   YDIPLEN   ZDIPLEN    0.091000        2.198411      -21.345096

      Averaged value       0.091000      281.785682      325.141096

253   XDIPLEN   XDIPLEN    0.092000      302.829727      839.567919
254   YDIPLEN   YDIPLEN    0.092000      264.943009       75.284231
255   ZDIPLEN   ZDIPLEN    0.092000      185.880563        8.446182
256   XDIPLEN   YDIPLEN    0.092000       40.288187     -233.283371
257   XDIPLEN   ZDIPLEN    0.092000      -53.741570       44.402858
258   YDIPLEN   ZDIPLEN    0.092000        5.534560      -17.388280

      Averaged value       0.092000      251.217766      307.766110

259   XDIPLEN   XDIPLEN    0.093000      253.451161      807.655118
260   YDIPLEN   YDIPLEN    0.093000      260.765537       65.519806
261   ZDIPLEN   ZDIPLEN    0.093000      185.681650        7.525517
262   XDIPLEN   YDIPLEN    0.093000       55.901807     -209.935593
263   XDIPLEN   ZDIPLEN    0.093000      -58.014220       30.092072
264   YDIPLEN   ZDIPLEN    0.093000        7.120637      -13.172928

      Averaged value       0.093000      233.299449      293.566814

265   XDIPLEN   XDIPLEN    0.094000      212.431399      799.415329
266   YDIPLEN   YDIPLEN    0.094000      259.709897       57.470336
267   ZDIPLEN   ZDIPLEN    0.094000      185.786266        6.777079
268   XDIPLEN   YDIPLEN    0.094000       64.381066     -192.575271
269   XDIPLEN   ZDIPLEN    0.094000      -57.655307       16.519652
270   YDIPLEN   ZDIPLEN    0.094000        7.364052       -9.313542

      Averaged value       0.094000      219.309187      287.887581

271   XDIPLEN   XDIPLEN    0.095000      154.551861      808.102166
272   YDIPLEN   YDIPLEN    0.095000      259.921474       51.376780
273   ZDIPLEN   ZDIPLEN    0.095000      186.008952        6.221212
274   XDIPLEN   YDIPLEN    0.095000       72.173479     -180.962789
275   XDIPLEN   ZDIPLEN    0.095000      -53.512510        4.752418
276   YDIPLEN   ZDIPLEN    0.095000        6.662327       -6.064915

      Averaged value       0.095000      200.160762      288.566719

277   XDIPLEN   XDIPLEN    0.096000       67.076485      809.784716
278   YDIPLEN   YDIPLEN    0.096000      260.244999       46.532331
279   ZDIPLEN   ZDIPLEN    0.096000      186.235282        5.781735
280   XDIPLEN   YDIPLEN    0.096000       82.977055     -171.103297
281   XDIPLEN   ZDIPLEN    0.096000      -46.398855       -4.164433
282   YDIPLEN   ZDIPLEN    0.096000        5.323810       -3.566324

      Averaged value       0.096000      171.185589      287.366261

283   XDIPLEN   XDIPLEN    0.097000      -38.808839      777.192358
284   YDIPLEN   YDIPLEN    0.097000      260.471236       41.994275
285   ZDIPLEN   ZDIPLEN    0.097000      186.449743        5.358802
286   XDIPLEN   YDIPLEN    0.097000       96.014788     -158.167881
287   XDIPLEN   ZDIPLEN    0.097000      -37.752718       -9.280713
288   YDIPLEN   ZDIPLEN    0.097000        3.679066       -1.909239

      Averaged value       0.097000      136.037380      274.848478

289   XDIPLEN   XDIPLEN    0.098000     -133.533473      702.191235
290   YDIPLEN   YDIPLEN    0.098000      261.075609       37.295880
291   ZDIPLEN   ZDIPLEN    0.098000      186.708821        4.905032
292   XDIPLEN   YDIPLEN    0.098000      107.155966     -140.341696
293   XDIPLEN   ZDIPLEN    0.098000      -29.567539      -10.639302
294   YDIPLEN   ZDIPLEN    0.098000        2.096527       -1.029776

      Averaged value       0.098000      104.750319      248.130716

295   XDIPLEN   XDIPLEN    0.099000     -193.921906      601.664728
296   YDIPLEN   YDIPLEN    0.099000      262.507024       32.637381
297   ZDIPLEN   ZDIPLEN    0.099000      187.064056        4.445881
298   XDIPLEN   YDIPLEN    0.099000      113.010248     -119.840278
299   XDIPLEN   ZDIPLEN    0.099000      -23.272467       -9.502782
300   YDIPLEN   ZDIPLEN    0.099000        0.827843       -0.682885

      Averaged value       0.099000       85.216391      212.915997

301   XDIPLEN   XDIPLEN    0.100000     -217.358644      499.140449
302   YDIPLEN   YDIPLEN    0.100000      264.776988       28.435373
303   ZDIPLEN   ZDIPLEN    0.100000      187.517652        4.029872
304   XDIPLEN   YDIPLEN    0.100000      113.276742     -100.028544
305   XDIPLEN   ZDIPLEN    0.100000      -19.100167       -7.388907
306   YDIPLEN   ZDIPLEN    0.100000       -0.078382       -0.594591

      Averaged value       0.100000       78.311999      177.201898
 
 ------------------------------------------------------------------
 Damping parameter equals  0.004557 au = 0.1240 eV = 1000.1 cm-1

  Total CPU  time used in RESPONSE:  10 hours 49 minutes 10 seconds
  Total wall time used in RESPONSE:  10 hours 49 minutes 34 seconds


                   .-------------------------------------------.
                   | End of Dynamic Property Section (RESPONS) |
                   `-------------------------------------------'

  Total CPU  time used in DALTON:  16 hours 13 minutes 43 seconds
  Total wall time used in DALTON:  16 hours 14 minutes 20 seconds

 
     Date and time (Linux)  : Wed Sep 11 00:56:30 2019
     Host name              : node358.cluster                         
